# p  FACE_DATA 81
# x  y  z  p
0.906521 -0.0319005 0.05 0
0.902175 -0.0313565 0.05 0
0.898429 -0.0308605 0.05 0
0.895349 -0.0302715 0.05 0
0.89303 -0.0293475 0.05 0
0.891549 -0.02792 0.05 0
0.890856 -0.0261565 0.05 0
0.890856 -0.0243155 0.05 0
1.20199 -0.102543 0.05 0
1.20123 -0.102812 0.05 0
1.19893 -0.101784 0.05 0
1.19438 -0.0997355 0.05 0
1.18766 -0.0966525 0.05 0
1.17885 -0.0926975 0.05 0
1.16798 -0.0881585 0.05 0
1.15521 -0.083221 0.05 0
1.1407 -0.077996 0.05 0
1.12465 -0.0726965 0.05 0
1.10727 -0.0675095 0.05 0
1.0936 -0.063742 0.05 0
1.08414 -0.0613465 0.05 0
1.0745 -0.059039 0.05 0
1.06472 -0.0568265 0.05 0
1.05485 -0.0547175 0.05 0
1.04491 -0.0527125 0.05 0
1.03495 -0.050808 0.05 0
1.02503 -0.049004 0.05 0
1.01517 -0.047303 0.05 0
1.00542 -0.045697 0.05 0
0.995825 -0.0441855 0.05 0
0.986424 -0.0427645 0.05 0
0.97726 -0.0414245 0.05 0
0.968372 -0.040158 0.05 0
0.959797 -0.038968 0.05 0
0.951573 -0.037853 0.05 0
0.943736 -0.036799 0.05 0
0.93632 -0.0358135 0.05 0
0.929354 -0.0348955 0.05 0
0.922865 -0.0340395 0.05 0
0.916881 -0.033245 0.05 0
0.911428 -0.0325265 0.05 0
0.891565 -0.0223655 0.05 0
0.892962 -0.020368 0.05 0
0.894982 -0.0184905 0.05 0
0.897595 -0.0168075 0.05 0
0.900779 -0.015354 0.05 0
0.904528 -0.0141055 0.05 0
0.908834 -0.0130605 0.05 0
0.913683 -0.0122235 0.05 0
0.91906 -0.0115575 0.05 0
0.924968 -0.011026 0.05 0
0.931389 -0.0106225 0.05 0
0.938282 -0.010365 0.05 0
0.945602 -0.01031 0.05 0
0.953305 -0.0105065 0.05 0
0.961356 -0.0109735 0.05 0
0.969719 -0.011708 0.05 0
0.978362 -0.0127095 0.05 0
0.987247 -0.013985 0.05 0
0.996331 -0.015546 0.05 0
1.00558 -0.01739 0.05 0
1.01495 -0.0194985 0.05 0
1.02443 -0.021847 0.05 0
1.03398 -0.024403 0.05 0
1.04357 -0.027151 0.05 0
1.05314 -0.0300845 0.05 0
1.06268 -0.0331985 0.05 0
1.07213 -0.0364775 0.05 0
1.08146 -0.039912 0.05 0
1.09064 -0.043483 0.05 0
1.09964 -0.0471515 0.05 0
1.11263 -0.0527845 0.05 0
1.12914 -0.060358 0.05 0
1.1444 -0.067842 0.05 0
1.15817 -0.0750645 0.05 0
1.17028 -0.0818585 0.05 0
1.18055 -0.088023 0.05 0
1.18886 -0.0933635 0.05 0
1.19519 -0.097522 0.05 0
1.19948 -0.100262 0.05 0
1.20165 -0.101642 0.05 0
