# p  FACE_DATA 125
# x  y  z  p
0.9436 0.014545 0.05 0
0.943135 0.014165 0.05 0
0.941275 0.014415 0.05 0
0.93756 0.01495 0.05 0
0.93201 0.015875 0.05 0
0.924645 0.01689 0.05 0
0.91549 0.0177 0.05 0
0.904585 0.01825 0.05 0
0.89197 0.018305 0.05 0
0.877695 0.0176 0.05 0
0.631525 -0.046335 0.05 0
0.86182 0.01587 0.05 0
0.844405 0.012935 0.05 0
0.82552 0.0085 0.05 0
0.80524 0.002525 0.05 0
0.783645 -0.00452 0.05 0
0.76082 -0.012105 0.05 0
0.73685 -0.019795 0.05 0
0.711835 -0.02721 0.05 0
0.685875 -0.03415 0.05 0
0.65907 -0.040525 0.05 0
0.11305 -0.06184 0.05 0
0.103605 -0.060315 0.05 0
0.60335 -0.051855 0.05 0
0.574655 -0.05709 0.05 0
0.545555 -0.06188 0.05 0
0.516165 -0.06618 0.05 0
0.486595 -0.069815 0.05 0
0.45697 -0.072645 0.05 0
0.427405 -0.074675 0.05 0
0.39801 -0.07601 0.05 0
0.368905 -0.076765 0.05 0
0.34021 -0.077025 0.05 0
0.312035 -0.07685 0.05 0
0.28449 -0.076255 0.05 0
0.257685 -0.075275 0.05 0
0.231725 -0.073935 0.05 0
0.20671 -0.072245 0.05 0
0.18274 -0.070245 0.05 0
0.159915 -0.067945 0.05 0
0.13832 -0.06537 0.05 0
0.12285 -0.063305 0.05 0
0.061995 0.06227 0.05 0
0.06954 0.064025 0.05 0
0.07748 0.06569 0.05 0
0.08581 0.067285 0.05 0
0.09452 -0.058725 0.05 0
0.08581 -0.057065 0.05 0
0.07748 -0.05534 0.05 0
0.06954 -0.053545 0.05 0
0.061995 -0.05168 0.05 0
0.054855 -0.04973 0.05 0
0.04813 -0.04767 0.05 0
0.04182 -0.04552 0.05 0
0.035935 -0.04329 0.05 0
0.03048 -0.040935 0.05 0
0.025455 -0.038445 0.05 0
0.020875 -0.03581 0.05 0
0.016745 -0.033015 0.05 0
0.01306 -0.030045 0.05 0
0.009825 -0.02686 0.05 0
0.007045 -0.02347 0.05 0
0.004725 -0.019885 0.05 0
0.00287 -0.016105 0.05 0
0.001475 -0.012045 0.05 0
0.00054 -0.00772 0.05 0
0.000115 -0.00316 0.05 0
0.000115 0.00171 0.05 0
0.00054 0.006905 0.05 0
0.001475 0.012375 0.05 0
0.00287 0.0179 0.05 0
0.004725 0.02323 0.05 0
0.007045 0.02829 0.05 0
0.009825 0.0331 0.05 0
0.01306 0.03761 0.05 0
0.016745 0.041755 0.05 0
0.020875 0.04545 0.05 0
0.025455 0.04863 0.05 0
0.030475 0.051385 0.05 0
0.03593 0.05387 0.05 0
0.04182 0.056185 0.05 0
0.04813 0.05837 0.05 0
0.054855 0.0604 0.05 0
0.09452 0.068825 0.05 0
0.103605 0.070305 0.05 0
0.11305 0.07174 0.05 0
0.12285 0.07313 0.05 0
0.13832 0.075095 0.05 0
0.159915 0.07756 0.05 0
0.18274 0.079805 0.05 0
0.20671 0.081815 0.05 0
0.231725 0.08358 0.05 0
0.257685 0.085085 0.05 0
0.28449 0.08632 0.05 0
0.312035 0.087275 0.05 0
0.34021 0.08793 0.05 0
0.368905 0.08828 0.05 0
0.39801 0.08832 0.05 0
0.427405 0.088035 0.05 0
0.45697 0.087425 0.05 0
0.486595 0.08647 0.05 0
0.516165 0.08514 0.05 0
0.545555 0.08343 0.05 0
0.574655 0.081315 0.05 0
0.60335 0.07876 0.05 0
0.631525 0.075735 0.05 0
0.65907 0.07224 0.05 0
0.685875 0.06833 0.05 0
0.711835 0.064095 0.05 0
0.73685 0.05963 0.05 0
0.76082 0.05504 0.05 0
0.783645 0.050435 0.05 0
0.80524 0.04591 0.05 0
0.82552 0.041545 0.05 0
0.844405 0.037385 0.05 0
0.86182 0.03349 0.05 0
0.877695 0.029905 0.05 0
0.89197 0.026655 0.05 0
0.904585 0.023765 0.05 0
0.91549 0.021245 0.05 0
0.924645 0.01919 0.05 0
0.93201 0.0176 0.05 0
0.93756 0.01635 0.05 0
0.941275 0.015495 0.05 0
0.943135 0.01509 0.05 0
