# p  FACE_DATA 81
# x  y  z  p
0.906521 -0.0319005 1 657.418
0.902175 -0.0313565 1 662.42
0.898429 -0.0308605 1 649.155
0.89535 -0.0302715 1 673.719
0.89303 -0.0293475 1 781.324
0.891549 -0.02792 1 885.258
0.890856 -0.0261565 1 828.015
0.890856 -0.0243155 1 607.792
1.20199 -0.102543 1 -242.341
1.20123 -0.102812 1 264.925
1.19893 -0.101784 1 240.715
1.19438 -0.0997355 1 314.422
1.18766 -0.0966525 1 360.945
1.17885 -0.0926975 1 407.258
1.16798 -0.0881585 1 431.356
1.15521 -0.083221 1 455.677
1.1407 -0.077996 1 479.828
1.12465 -0.0726965 1 498.083
1.10727 -0.0675095 1 510.87
1.0936 -0.063742 1 519.164
1.08414 -0.0613465 1 524.005
1.0745 -0.059039 1 528.571
1.06472 -0.0568265 1 532.522
1.05485 -0.0547175 1 535.618
1.04491 -0.0527125 1 538.699
1.03496 -0.050808 1 542.075
1.02503 -0.049004 1 545.316
1.01517 -0.047303 1 547.841
1.00542 -0.045697 1 551.777
0.995825 -0.0441855 1 554.71
0.986425 -0.0427645 1 558.849
0.97726 -0.0414245 1 562.872
0.968372 -0.040158 1 568.852
0.959797 -0.038968 1 573.167
0.951573 -0.037853 1 579.744
0.943736 -0.036799 1 587.669
0.93632 -0.0358135 1 595.378
0.929353 -0.0348955 1 604.079
0.922865 -0.0340395 1 614.164
0.916881 -0.033245 1 627.268
0.911428 -0.0325265 1 642.279
0.891565 -0.0223655 1 313.946
0.892962 -0.020368 1 91.6051
0.894981 -0.0184905 1 -64.6087
0.897595 -0.0168075 1 -149.998
0.900779 -0.015354 1 -158.549
0.904528 -0.0141055 1 -143.185
0.908834 -0.0130605 1 -142.488
0.913683 -0.0122235 1 -141.628
0.91906 -0.0115575 1 -146.418
0.924968 -0.011026 1 -178.567
0.931389 -0.0106225 1 -241.306
0.938283 -0.010365 1 -334.945
0.945603 -0.01031 1 -448.65
0.953305 -0.0105065 1 -544.499
0.961356 -0.0109735 1 -615.775
0.969719 -0.011708 1 -652.089
0.978362 -0.0127095 1 -685.563
0.987247 -0.013985 1 -707.897
0.996331 -0.015546 1 -721.273
1.00558 -0.01739 1 -715.559
1.01495 -0.0194985 1 -702.093
1.02443 -0.021847 1 -679.384
1.03398 -0.024403 1 -662.239
1.04357 -0.027151 1 -643.538
1.05314 -0.0300845 1 -629.542
1.06268 -0.0331985 1 -604.538
1.07213 -0.0364775 1 -570.462
1.08146 -0.039912 1 -540.708
1.09064 -0.043483 1 -503.267
1.09964 -0.0471515 1 -463.568
1.11263 -0.0527845 1 -411.16
1.12914 -0.060358 1 -350.383
1.1444 -0.067842 1 -265.151
1.15817 -0.0750645 1 -204.278
1.17028 -0.0818585 1 -142.074
1.18055 -0.088023 1 -75.6835
1.18886 -0.0933635 1 -19.0952
1.19519 -0.097522 1 31.8411
1.19948 -0.100262 1 50.0485
1.20165 -0.101642 1 55.7334
