# p  FACE_DATA 125
# x  y  z  p
0.9436 0.014545 1 -1220.18
0.943135 0.014165 1 -336.703
0.941275 0.014415 1 -327.384
0.93756 0.01495 1 -198.667
0.93201 0.015875 1 -24.2307
0.924645 0.01689 1 58.3888
0.91549 0.0177 1 162.402
0.904585 0.01825 1 276.65
0.89197 0.018305 1 401.194
0.877695 0.0176 1 486.479
0.631525 -0.046335 1 348.214
0.86182 0.01587 1 530.915
0.844405 0.012935 1 552.266
0.82552 0.0085 1 546.748
0.80524 0.002525 1 530.187
0.783645 -0.00452 1 511.612
0.76082 -0.012105 1 480.149
0.73685 -0.019795 1 441.325
0.711835 -0.02721 1 407.55
0.685875 -0.03415 1 377.374
0.65907 -0.040525 1 355.029
0.11305 -0.06184 1 635.408
0.103605 -0.060315 1 657.003
0.60335 -0.051855 1 326.525
0.574655 -0.05709 1 313.06
0.545555 -0.06188 1 298.153
0.516165 -0.06618 1 282.049
0.486595 -0.069815 1 274.399
0.45697 -0.072645 1 275.983
0.427405 -0.074675 1 287.244
0.39801 -0.07601 1 305.195
0.368905 -0.076765 1 322.49
0.34021 -0.077025 1 339.688
0.312035 -0.07685 1 362.868
0.28449 -0.076255 1 386.688
0.257685 -0.075275 1 411.139
0.231725 -0.073935 1 442.286
0.20671 -0.072245 1 470.075
0.18274 -0.070245 1 502.457
0.159915 -0.067945 1 542.381
0.13832 -0.06537 1 583.57
0.12285 -0.063305 1 613.505
0.061995 0.06227 1 -3332.82
0.06954 0.064025 1 -3055.73
0.07748 0.06569 1 -2847.62
0.08581 0.067285 1 -2660.93
0.09452 -0.058725 1 681.067
0.08581 -0.057065 1 704.84
0.07748 -0.05534 1 729.481
0.06954 -0.053545 1 754.684
0.061995 -0.05168 1 779.681
0.054855 -0.04973 1 803.819
0.04813 -0.04767 1 827.65
0.04182 -0.04552 1 847.179
0.035935 -0.04329 1 861.557
0.03048 -0.040935 1 864.956
0.025455 -0.038445 1 855.106
0.020875 -0.03581 1 820.245
0.016745 -0.033015 1 753.58
0.01306 -0.030045 1 640.15
0.009825 -0.02686 1 471.372
0.007045 -0.02347 1 244.344
0.004725 -0.019885 1 -46.6174
0.00287 -0.016105 1 -389.124
0.001475 -0.012045 1 -768.481
0.00054 -0.00772 1 -1126.69
0.000115 -0.00316 1 -1497.91
0.000115 0.00171 1 -1725.78
0.00054 0.006905 1 -2194.94
0.001475 0.012375 1 -2612.31
0.00287 0.0179 1 -3123.37
0.004725 0.02323 1 -3739.7
0.007045 0.02829 1 -4286.37
0.009825 0.0331 1 -4796.46
0.01306 0.03761 1 -5292.75
0.016745 0.041755 1 -5692.93
0.020875 0.04545 1 -5943.93
0.025455 0.04863 1 -5802.27
0.030475 0.051385 1 -5204.41
0.03593 0.05387 1 -4628.39
0.04182 0.056185 1 -4187.05
0.04813 0.05837 1 -3882.92
0.054855 0.0604 1 -3627.95
0.09452 0.068825 1 -2516.41
0.103605 0.070305 1 -2382.65
0.11305 0.07174 1 -2258.72
0.12285 0.07313 1 -2166.26
0.13832 0.075095 1 -2029.53
0.159915 0.07756 1 -1871.98
0.18274 0.079805 1 -1766.96
0.20671 0.081815 1 -1652.05
0.231725 0.08358 1 -1574.04
0.257685 0.085085 1 -1507.36
0.28449 0.08632 1 -1431.58
0.312035 0.087275 1 -1379.04
0.34021 0.08793 1 -1338.3
0.368905 0.08828 1 -1295.52
0.39801 0.08832 1 -1258.98
0.427405 0.088035 1 -1220.06
0.45697 0.087425 1 -1202.96
0.486595 0.08647 1 -1178.64
0.516165 0.08514 1 -1163.51
0.545555 0.08343 1 -1133.88
0.574655 0.081315 1 -1105.22
0.60335 0.07876 1 -1083.59
0.631525 0.075735 1 -1065.76
0.65907 0.07224 1 -1031.19
0.685875 0.06833 1 -976.507
0.711835 0.064095 1 -947.234
0.73685 0.05963 1 -882.837
0.76082 0.05504 1 -825.174
0.783645 0.050435 1 -795.652
0.80524 0.04591 1 -733.682
0.82552 0.041545 1 -703.249
0.844405 0.037385 1 -653.675
0.86182 0.03349 1 -645.168
0.877695 0.029905 1 -607.897
0.89197 0.026655 1 -597.373
0.904585 0.023765 1 -579.987
0.91549 0.021245 1 -565.415
0.924645 0.01919 1 -547.638
0.93201 0.0176 1 -555.996
0.93756 0.01635 1 -572.508
0.941275 0.015495 1 -589.308
0.943135 0.01509 1 -614.046
