<?xml version="1.0"?>
<VTKFile type="UnstructuredGrid"  version="0.1"  >
<UnstructuredGrid>
<Piece  NumberOfPoints="135" NumberOfCells="208">
<Points>
<DataArray  type="Float64"  NumberOfComponents="3"  format="ascii">-0.05 0 0  -0.025 0 0  0 0 0  0.02500000000000001 0 0  0.05 0 0  -0.05 0.03846153846153846 0  -0.025 0.03846153846153846 0  0 0.03846153846153846 0  0.02500000000000001 0.03846153846153846 0  0.05 0.03846153846153846 0  -0.05 0.07692307692307693 0  -0.025 0.07692307692307693 0  0 0.07692307692307693 0  0.02500000000000001 0.07692307692307693 0  0.05 0.07692307692307693 0  -0.05 0.1153846153846154 0  -0.025 0.1153846153846154 0  0 0.1153846153846154 0  0.02500000000000001 0.1153846153846154 0  0.05 0.1153846153846154 0  -0.05 0.1538461538461539 0  -0.025 0.1538461538461539 0  0 0.1538461538461539 0  0.02500000000000001 0.1538461538461539 0  0.05 0.1538461538461539 0  -0.05 0.1923076923076923 0  -0.025 0.1923076923076923 0  0 0.1923076923076923 0  0.02500000000000001 0.1923076923076923 0  0.05 0.1923076923076923 0  -0.05 0.2307692307692308 0  -0.025 0.2307692307692308 0  0 0.2307692307692308 0  0.02500000000000001 0.2307692307692308 0  0.05 0.2307692307692308 0  -0.05 0.2692307692307692 0  -0.025 0.2692307692307692 0  0 0.2692307692307692 0  0.02500000000000001 0.2692307692307692 0  0.05 0.2692307692307692 0  -0.05 0.3076923076923077 0  -0.025 0.3076923076923077 0  0 0.3076923076923077 0  0.02500000000000001 0.3076923076923077 0  0.05 0.3076923076923077 0  -0.05 0.3461538461538461 0  -0.025 0.3461538461538461 0  0 0.3461538461538461 0  0.02500000000000001 0.3461538461538461 0  0.05 0.3461538461538461 0  -0.05 0.3846153846153846 0  -0.025 0.3846153846153846 0  0 0.3846153846153846 0  0.02500000000000001 0.3846153846153846 0  0.05 0.3846153846153846 0  -0.05 0.4230769230769231 0  -0.025 0.4230769230769231 0  0 0.4230769230769231 0  0.02500000000000001 0.4230769230769231 0  0.05 0.4230769230769231 0  -0.05 0.4615384615384616 0  -0.025 0.4615384615384616 0  0 0.4615384615384616 0  0.02500000000000001 0.4615384615384616 0  0.05 0.4615384615384616 0  -0.05 0.5 0  -0.025 0.5 0  0 0.5 0  0.02500000000000001 0.5 0  0.05 0.5 0  -0.05 0.5384615384615384 0  -0.025 0.5384615384615384 0  0 0.5384615384615384 0  0.02500000000000001 0.5384615384615384 0  0.05 0.5384615384615384 0  -0.05 0.5769230769230769 0  -0.025 0.5769230769230769 0  0 0.5769230769230769 0  0.02500000000000001 0.5769230769230769 0  0.05 0.5769230769230769 0  -0.05 0.6153846153846154 0  -0.025 0.6153846153846154 0  0 0.6153846153846154 0  0.02500000000000001 0.6153846153846154 0  0.05 0.6153846153846154 0  -0.05 0.6538461538461539 0  -0.025 0.6538461538461539 0  0 0.6538461538461539 0  0.02500000000000001 0.6538461538461539 0  0.05 0.6538461538461539 0  -0.05 0.6923076923076923 0  -0.025 0.6923076923076923 0  0 0.6923076923076923 0  0.02500000000000001 0.6923076923076923 0  0.05 0.6923076923076923 0  -0.05 0.7307692307692307 0  -0.025 0.7307692307692307 0  0 0.7307692307692307 0  0.02500000000000001 0.7307692307692307 0  0.05 0.7307692307692307 0  -0.05 0.7692307692307693 0  -0.025 0.7692307692307693 0  0 0.7692307692307693 0  0.02500000000000001 0.7692307692307693 0  0.05 0.7692307692307693 0  -0.05 0.8076923076923077 0  -0.025 0.8076923076923077 0  0 0.8076923076923077 0  0.02500000000000001 0.8076923076923077 0  0.05 0.8076923076923077 0  -0.05 0.8461538461538461 0  -0.025 0.8461538461538461 0  0 0.8461538461538461 0  0.02500000000000001 0.8461538461538461 0  0.05 0.8461538461538461 0  -0.05 0.8846153846153846 0  -0.025 0.8846153846153846 0  0 0.8846153846153846 0  0.02500000000000001 0.8846153846153846 0  0.05 0.8846153846153846 0  -0.05 0.9230769230769231 0  -0.025 0.9230769230769231 0  0 0.9230769230769231 0  0.02500000000000001 0.9230769230769231 0  0.05 0.9230769230769231 0  -0.05 0.9615384615384616 0  -0.025 0.9615384615384616 0  0 0.9615384615384616 0  0.02500000000000001 0.9615384615384616 0  0.05 0.9615384615384616 0  -0.05 1 0  -0.025 1 0  0 1 0  0.02500000000000001 1 0  0.05 1 0  </DataArray>
</Points>
<Cells>
<DataArray  type="UInt32"  Name="connectivity"  format="ascii">0 1 6  0 5 6  1 2 7  1 6 7  2 3 8  2 7 8  3 4 9  3 8 9  5 6 11  5 10 11  6 7 12  6 11 12  7 8 13  7 12 13  8 9 14  8 13 14  10 11 16  10 15 16  11 12 17  11 16 17  12 13 18  12 17 18  13 14 19  13 18 19  15 16 21  15 20 21  16 17 22  16 21 22  17 18 23  17 22 23  18 19 24  18 23 24  20 21 26  20 25 26  21 22 27  21 26 27  22 23 28  22 27 28  23 24 29  23 28 29  25 26 31  25 30 31  26 27 32  26 31 32  27 28 33  27 32 33  28 29 34  28 33 34  30 31 36  30 35 36  31 32 37  31 36 37  32 33 38  32 37 38  33 34 39  33 38 39  35 36 41  35 40 41  36 37 42  36 41 42  37 38 43  37 42 43  38 39 44  38 43 44  40 41 46  40 45 46  41 42 47  41 46 47  42 43 48  42 47 48  43 44 49  43 48 49  45 46 51  45 50 51  46 47 52  46 51 52  47 48 53  47 52 53  48 49 54  48 53 54  50 51 56  50 55 56  51 52 57  51 56 57  52 53 58  52 57 58  53 54 59  53 58 59  55 56 61  55 60 61  56 57 62  56 61 62  57 58 63  57 62 63  58 59 64  58 63 64  60 61 66  60 65 66  61 62 67  61 66 67  62 63 68  62 67 68  63 64 69  63 68 69  65 66 71  65 70 71  66 67 72  66 71 72  67 68 73  67 72 73  68 69 74  68 73 74  70 71 76  70 75 76  71 72 77  71 76 77  72 73 78  72 77 78  73 74 79  73 78 79  75 76 81  75 80 81  76 77 82  76 81 82  77 78 83  77 82 83  78 79 84  78 83 84  80 81 86  80 85 86  81 82 87  81 86 87  82 83 88  82 87 88  83 84 89  83 88 89  85 86 91  85 90 91  86 87 92  86 91 92  87 88 93  87 92 93  88 89 94  88 93 94  90 91 96  90 95 96  91 92 97  91 96 97  92 93 98  92 97 98  93 94 99  93 98 99  95 96 101  95 100 101  96 97 102  96 101 102  97 98 103  97 102 103  98 99 104  98 103 104  100 101 106  100 105 106  101 102 107  101 106 107  102 103 108  102 107 108  103 104 109  103 108 109  105 106 111  105 110 111  106 107 112  106 111 112  107 108 113  107 112 113  108 109 114  108 113 114  110 111 116  110 115 116  111 112 117  111 116 117  112 113 118  112 117 118  113 114 119  113 118 119  115 116 121  115 120 121  116 117 122  116 121 122  117 118 123  117 122 123  118 119 124  118 123 124  120 121 126  120 125 126  121 122 127  121 126 127  122 123 128  122 127 128  123 124 129  123 128 129  125 126 131  125 130 131  126 127 132  126 131 132  127 128 133  127 132 133  128 129 134  128 133 134  </DataArray>
<DataArray  type="UInt32"  Name="offsets"  format="ascii">3 6 9 12 15 18 21 24 27 30 33 36 39 42 45 48 51 54 57 60 63 66 69 72 75 78 81 84 87 90 93 96 99 102 105 108 111 114 117 120 123 126 129 132 135 138 141 144 147 150 153 156 159 162 165 168 171 174 177 180 183 186 189 192 195 198 201 204 207 210 213 216 219 222 225 228 231 234 237 240 243 246 249 252 255 258 261 264 267 270 273 276 279 282 285 288 291 294 297 300 303 306 309 312 315 318 321 324 327 330 333 336 339 342 345 348 351 354 357 360 363 366 369 372 375 378 381 384 387 390 393 396 399 402 405 408 411 414 417 420 423 426 429 432 435 438 441 444 447 450 453 456 459 462 465 468 471 474 477 480 483 486 489 492 495 498 501 504 507 510 513 516 519 522 525 528 531 534 537 540 543 546 549 552 555 558 561 564 567 570 573 576 579 582 585 588 591 594 597 600 603 606 609 612 615 618 621 624 </DataArray>
<DataArray  type="UInt8"  Name="types"  format="ascii">5 5 5 5 5 5 5 5 5 5 5 5 5 5 5 5 5 5 5 5 5 5 5 5 5 5 5 5 5 5 5 5 5 5 5 5 5 5 5 5 5 5 5 5 5 5 5 5 5 5 5 5 5 5 5 5 5 5 5 5 5 5 5 5 5 5 5 5 5 5 5 5 5 5 5 5 5 5 5 5 5 5 5 5 5 5 5 5 5 5 5 5 5 5 5 5 5 5 5 5 5 5 5 5 5 5 5 5 5 5 5 5 5 5 5 5 5 5 5 5 5 5 5 5 5 5 5 5 5 5 5 5 5 5 5 5 5 5 5 5 5 5 5 5 5 5 5 5 5 5 5 5 5 5 5 5 5 5 5 5 5 5 5 5 5 5 5 5 5 5 5 5 5 5 5 5 5 5 5 5 5 5 5 5 5 5 5 5 5 5 5 5 5 5 5 5 5 5 5 5 5 5 5 5 5 5 5 5 </DataArray>
</Cells>
<PointData  Vectors="Displacement"> 
<DataArray  type="Float64"  Name="Displacement"  NumberOfComponents="3" format="ascii">-4.6539000009324282e-16 4.4782387300486128e-18 0.0000000000000000e+00  0.0000000000000000e+00 0.0000000000000000e+00 0.0000000000000000e+00  0.0000000000000000e+00 0.0000000000000000e+00 0.0000000000000000e+00  -6.0495268075495760e-17 1.3087927721089231e-18 0.0000000000000000e+00  1.8148580422648730e-16 -3.9263783163267697e-18 0.0000000000000000e+00  3.0971992593442041e-04 4.1034054110270364e-04 0.0000000000000000e+00  2.2902222604473320e-04 1.8662880362190312e-04 0.0000000000000000e+00  1.9972493742957792e-04 -4.2105129997712260e-06 0.0000000000000000e+00  2.2575424208250852e-04 -1.9312435491387122e-04 0.0000000000000000e+00  3.1108530250439123e-04 -4.2202754055015515e-04 0.0000000000000000e+00  8.2378494743238530e-04 7.6235193240837781e-04 0.0000000000000000e+00  7.5478341483989169e-04 3.6296391918936584e-04 0.0000000000000000e+00  7.3183110643286898e-04 -9.6419875701587727e-06 0.0000000000000000e+00  7.5658794218867482e-04 -3.8233662520345698e-04 0.0000000000000000e+00  8.2870632347582915e-04 -7.8331990873937920e-04 0.0000000000000000e+00  1.5911766945706405e-03 1.0651813420158968e-03 0.0000000000000000e+00  1.5330709501907075e-03 5.1206904765850061e-04 0.0000000000000000e+00  1.5150544942904537e-03 -1.6022839187681574e-05 0.0000000000000000e+00  1.5370306021849523e-03 -5.4442648219407870e-04 0.0000000000000000e+00  1.5986305967142958e-03 -1.0978201452999990e-03 0.0000000000000000e+00  2.5766716054799791e-03 1.3191254038016130e-03 0.0000000000000000e+00  2.5282832100883990e-03 6.3580064114406303e-04 0.0000000000000000e+00  2.5126260791556009e-03 -2.3010379492718223e-05 0.0000000000000000e+00  2.5301190424694073e-03 -6.8182278785743229e-04 0.0000000000000000e+00  2.5818580780671563e-03 -1.3643095653121623e-03 0.0000000000000000e+00  3.7413345860855774e-03 1.5271009170543034e-03 0.0000000000000000e+00  3.7027382663550293e-03 7.3762891787244693e-04 0.0000000000000000e+00  3.6902518147458397e-03 -2.9050921648699042e-05 0.0000000000000000e+00  3.7048589670332361e-03 -7.9571901321126321e-04 0.0000000000000000e+00  3.7466923820562662e-03 -1.5856598457100206e-03 0.0000000000000000e+00  5.0516257279789017e-03 1.6902283391896863e-03 0.0000000000000000e+00  5.0209737727144365e-03 8.1701832512801888e-04 0.0000000000000000e+00  5.0115127456348534e-03 -3.5096441710732990e-05 0.0000000000000000e+00  5.0233035937927786e-03 -8.8742323864562901e-04 0.0000000000000000e+00  5.0565675900651327e-03 -1.7602114328414886e-03 0.0000000000000000e+00  6.4697523987309463e-03 1.8131074144447906e-03 0.0000000000000000e+00  6.4481057546585873e-03 8.7652672740393990e-04 0.0000000000000000e+00  6.4408028668077304e-03 -4.1262281485739542e-05 0.0000000000000000e+00  6.4492518272613406e-03 -9.5862531390031509e-04 0.0000000000000000e+00  6.4738704384387823e-03 -1.8947720474877911e-03 0.0000000000000000e+00  7.9694591663132686e-03 1.8979726269851335e-03 0.0000000000000000e+00  7.9540626613958942e-03 9.1771061644421942e-04 0.0000000000000000e+00  7.9493347144008950e-03 -4.6798854303515762e-05 0.0000000000000000e+00  7.9558444500856581e-03 -1.0117931712813925e-03 0.0000000000000000e+00  7.9737463870251137e-03 -1.9927734126604607e-03 0.0000000000000000e+00  9.5189177439692890e-03 1.9515181398800209e-03 0.0000000000000000e+00  9.5103447821681640e-03 9.4205926710350812e-04 0.0000000000000000e+00  9.5080793700561203e-03 -5.3803602747477675e-05 0.0000000000000000e+00  9.5126740323650209e-03 -1.0499107752040310e-03 0.0000000000000000e+00  9.5247000888036629e-03 -2.0600825380522885e-03 0.0000000000000000e+00  1.1102881335936308e-02 1.9794829888270938e-03 0.0000000000000000e+00  1.1099424238148388e-02 9.5281434414535931e-04 0.0000000000000000e+00  1.1099356275554126e-02 -6.1470402570814174e-05 0.0000000000000000e+00  1.1102834962938351e-02 -1.0758523950216555e-03 0.0000000000000000e+00  1.1109864809130844e-02 -2.1027877561677647e-03 0.0000000000000000e+00  1.2703925945060935e-02 1.9833395836748868e-03 0.0000000000000000e+00  1.2704959571824189e-02 9.5073302671453775e-04 0.0000000000000000e+00  1.2706334617857168e-02 -6.9656943354343126e-05 0.0000000000000000e+00  1.2707881252347362e-02 -1.0900941140460541e-03 0.0000000000000000e+00  1.2710425491145415e-02 -2.1222966907087945e-03 0.0000000000000000e+00  1.4303103292452012e-02 1.9651863496016912e-03 0.0000000000000000e+00  1.4309505616358239e-02 9.3787498708262397e-04 0.0000000000000000e+00  1.4312339318259858e-02 -7.8004656093108479e-05 0.0000000000000000e+00  1.4312300228921965e-02 -1.0934644962789471e-03 0.0000000000000000e+00  1.4309860128337331e-02 -2.1204187244434985e-03 0.0000000000000000e+00  1.5887665237106618e-02 1.9243473437252541e-03 0.0000000000000000e+00  1.5897408718199741e-02 9.1371211127885203e-04 0.0000000000000000e+00  1.5901537701002721e-02 -8.5925234035406074e-05 0.0000000000000000e+00  1.5900061347810659e-02 -1.0858510657234303e-03 0.0000000000000000e+00  1.5893644675636923e-02 -2.0963242983141716e-03 0.0000000000000000e+00  1.7433045369472450e-02 1.8621551506807464e-03 0.0000000000000000e+00  1.7448058337854292e-02 8.7927037778585721e-04 0.0000000000000000e+00  1.7453729155071623e-02 -9.4546869102642148e-05 0.0000000000000000e+00  1.7450919506989619e-02 -1.0682731374120024e-03 0.0000000000000000e+00  1.7440125135107253e-02 -2.0514167850631654e-03 0.0000000000000000e+00  1.8929811035905089e-02 1.7822404687225896e-03 0.0000000000000000e+00  1.8947448520958463e-02 8.3559160261193876e-04 0.0000000000000000e+00  1.8954559515301832e-02 -1.0311197076917003e-04 0.0000000000000000e+00  1.8951168135026630e-02 -1.0420137223566366e-03 0.0000000000000000e+00  1.8937248978439243e-02 -1.9884681179685630e-03 0.0000000000000000e+00  2.0360429476974813e-02 1.6861012042236755e-03 0.0000000000000000e+00  2.0381035311643789e-02 7.8423581566804189e-04 0.0000000000000000e+00  2.0388626535512270e-02 -1.1217853375727619e-04 0.0000000000000000e+00  2.0384091537180102e-02 -1.0082103846373667e-03 0.0000000000000000e+00  2.0367385778714935e-02 -1.9090043773188443e-03 0.0000000000000000e+00  2.1711432297222943e-02 1.5796822267255043e-03 0.0000000000000000e+00  2.1732757736965199e-02 7.2939334616392635e-04 0.0000000000000000e+00  2.1740301344249358e-02 -1.2066573723194823e-04 0.0000000000000000e+00  2.1735452495549416e-02 -9.7024025272172347e-04 0.0000000000000000e+00  2.1717513170257947e-02 -1.8195274052519633e-03 0.0000000000000000e+00  2.2976819987320478e-02 1.4737355147607682e-03 0.0000000000000000e+00  2.2996141547654628e-02 6.7458247141737016e-04 0.0000000000000000e+00  2.3003208848099241e-02 -1.2883811693056776e-04 0.0000000000000000e+00  2.2998583049083362e-02 -9.3236115944795727e-04 0.0000000000000000e+00  2.2982269939052127e-02 -1.7310256323257371e-03 0.0000000000000000e+00  2.4160431123014071e-02 1.3798166866870044e-03 0.0000000000000000e+00  2.4177832165416656e-02 6.2508215918048141e-04 0.0000000000000000e+00  2.4184634415180099e-02 -1.3750458312733880e-04 0.0000000000000000e+00  2.4181221623911744e-02 -8.9967775964615120e-04 0.0000000000000000e+00  2.4167141209146824e-02 -1.6538127006074435e-03 0.0000000000000000e+00  2.5284763360080405e-02 1.3050082433458832e-03 0.0000000000000000e+00  2.5297013610006816e-02 5.8377603236504374e-04 0.0000000000000000e+00  2.5302313105078890e-02 -1.4525848527612175e-04 0.0000000000000000e+00  2.5299597610663905e-02 -8.7378591505369002e-04 0.0000000000000000e+00  2.5289334180139164e-02 -1.5928398779994858e-03 0.0000000000000000e+00  2.6360930350108322e-02 1.2482942908114446e-03 0.0000000000000000e+00  2.6371058036024284e-02 5.5173420300358076e-04 0.0000000000000000e+00  2.6375386429841788e-02 -1.5208594310690791e-04 0.0000000000000000e+00  2.6373268301341131e-02 -8.5481195177831623e-04 0.0000000000000000e+00  2.6365793166458821e-02 -1.5501543548207288e-03 0.0000000000000000e+00  2.7411656033135005e-02 1.2083171973947932e-03 0.0000000000000000e+00  2.7418259546102476e-02 5.2724032630531317e-04 0.0000000000000000e+00  2.7421179902141681e-02 -1.5784168543908245e-04 0.0000000000000000e+00  2.7419856152763274e-02 -8.4268857623398096e-04 0.0000000000000000e+00  2.7415332723537366e-02 -1.5213884099636794e-03 0.0000000000000000e+00  2.8443088803063867e-02 1.1769027891034929e-03 0.0000000000000000e+00  2.8447461766706806e-02 5.0910091240100866e-04 0.0000000000000000e+00  2.8449177802670346e-02 -1.6247996217694596e-04 0.0000000000000000e+00  2.8448031864975014e-02 -8.3463752962698598e-04 0.0000000000000000e+00  2.8445124601165418e-02 -1.5018734818326787e-03 0.0000000000000000e+00  2.9453972231604706e-02 1.1520964840019906e-03 0.0000000000000000e+00  2.9458144376634243e-02 4.9362572292563215e-04 0.0000000000000000e+00  2.9461319536231673e-02 -1.6873983094990594e-04 0.0000000000000000e+00  2.9461314673563586e-02 -8.3023483523634093e-04 0.0000000000000000e+00  2.9458804847355906e-02 -1.4880053995180104e-03 0.0000000000000000e+00  3.0454427518947644e-02 1.1375241930712586e-03 0.0000000000000000e+00  3.0455027614647832e-02 4.8089572664739683e-04 0.0000000000000000e+00  3.0458284576047545e-02 -1.7871581176665606e-04 0.0000000000000000e+00  3.0461072352059113e-02 -8.2913309508105969e-04 0.0000000000000000e+00  3.0461752481717778e-02 -1.4751060766810848e-03 0.0000000000000000e+00  3.1456781133215546e-02 1.1388422895727728e-03 0.0000000000000000e+00  3.1451895980315774e-02 4.7797885023020210e-04 0.0000000000000000e+00  3.1421903781817383e-02 -2.1356873105231677e-04 0.0000000000000000e+00  3.1441701600198636e-02 -8.2708658191964018e-04 0.0000000000000000e+00  3.1443402857181828e-02 -1.4691640308249450e-03 0.0000000000000000e+00  </DataArray> 
</PointData> 
</Piece>
</UnstructuredGrid>
</VTKFile>