<?xml version="1.0"?>
<VTKFile type="UnstructuredGrid"  version="0.1"  >
<UnstructuredGrid>
<Piece  NumberOfPoints="135" NumberOfCells="208">
<Points>
<DataArray  type="Float64"  NumberOfComponents="3"  format="ascii">-0.05 0 0  -0.025 0 0  0 0 0  0.02500000000000001 0 0  0.05 0 0  -0.05 0.03846153846153846 0  -0.025 0.03846153846153846 0  0 0.03846153846153846 0  0.02500000000000001 0.03846153846153846 0  0.05 0.03846153846153846 0  -0.05 0.07692307692307693 0  -0.025 0.07692307692307693 0  0 0.07692307692307693 0  0.02500000000000001 0.07692307692307693 0  0.05 0.07692307692307693 0  -0.05 0.1153846153846154 0  -0.025 0.1153846153846154 0  0 0.1153846153846154 0  0.02500000000000001 0.1153846153846154 0  0.05 0.1153846153846154 0  -0.05 0.1538461538461539 0  -0.025 0.1538461538461539 0  0 0.1538461538461539 0  0.02500000000000001 0.1538461538461539 0  0.05 0.1538461538461539 0  -0.05 0.1923076923076923 0  -0.025 0.1923076923076923 0  0 0.1923076923076923 0  0.02500000000000001 0.1923076923076923 0  0.05 0.1923076923076923 0  -0.05 0.2307692307692308 0  -0.025 0.2307692307692308 0  0 0.2307692307692308 0  0.02500000000000001 0.2307692307692308 0  0.05 0.2307692307692308 0  -0.05 0.2692307692307692 0  -0.025 0.2692307692307692 0  0 0.2692307692307692 0  0.02500000000000001 0.2692307692307692 0  0.05 0.2692307692307692 0  -0.05 0.3076923076923077 0  -0.025 0.3076923076923077 0  0 0.3076923076923077 0  0.02500000000000001 0.3076923076923077 0  0.05 0.3076923076923077 0  -0.05 0.3461538461538461 0  -0.025 0.3461538461538461 0  0 0.3461538461538461 0  0.02500000000000001 0.3461538461538461 0  0.05 0.3461538461538461 0  -0.05 0.3846153846153846 0  -0.025 0.3846153846153846 0  0 0.3846153846153846 0  0.02500000000000001 0.3846153846153846 0  0.05 0.3846153846153846 0  -0.05 0.4230769230769231 0  -0.025 0.4230769230769231 0  0 0.4230769230769231 0  0.02500000000000001 0.4230769230769231 0  0.05 0.4230769230769231 0  -0.05 0.4615384615384616 0  -0.025 0.4615384615384616 0  0 0.4615384615384616 0  0.02500000000000001 0.4615384615384616 0  0.05 0.4615384615384616 0  -0.05 0.5 0  -0.025 0.5 0  0 0.5 0  0.02500000000000001 0.5 0  0.05 0.5 0  -0.05 0.5384615384615384 0  -0.025 0.5384615384615384 0  0 0.5384615384615384 0  0.02500000000000001 0.5384615384615384 0  0.05 0.5384615384615384 0  -0.05 0.5769230769230769 0  -0.025 0.5769230769230769 0  0 0.5769230769230769 0  0.02500000000000001 0.5769230769230769 0  0.05 0.5769230769230769 0  -0.05 0.6153846153846154 0  -0.025 0.6153846153846154 0  0 0.6153846153846154 0  0.02500000000000001 0.6153846153846154 0  0.05 0.6153846153846154 0  -0.05 0.6538461538461539 0  -0.025 0.6538461538461539 0  0 0.6538461538461539 0  0.02500000000000001 0.6538461538461539 0  0.05 0.6538461538461539 0  -0.05 0.6923076923076923 0  -0.025 0.6923076923076923 0  0 0.6923076923076923 0  0.02500000000000001 0.6923076923076923 0  0.05 0.6923076923076923 0  -0.05 0.7307692307692307 0  -0.025 0.7307692307692307 0  0 0.7307692307692307 0  0.02500000000000001 0.7307692307692307 0  0.05 0.7307692307692307 0  -0.05 0.7692307692307693 0  -0.025 0.7692307692307693 0  0 0.7692307692307693 0  0.02500000000000001 0.7692307692307693 0  0.05 0.7692307692307693 0  -0.05 0.8076923076923077 0  -0.025 0.8076923076923077 0  0 0.8076923076923077 0  0.02500000000000001 0.8076923076923077 0  0.05 0.8076923076923077 0  -0.05 0.8461538461538461 0  -0.025 0.8461538461538461 0  0 0.8461538461538461 0  0.02500000000000001 0.8461538461538461 0  0.05 0.8461538461538461 0  -0.05 0.8846153846153846 0  -0.025 0.8846153846153846 0  0 0.8846153846153846 0  0.02500000000000001 0.8846153846153846 0  0.05 0.8846153846153846 0  -0.05 0.9230769230769231 0  -0.025 0.9230769230769231 0  0 0.9230769230769231 0  0.02500000000000001 0.9230769230769231 0  0.05 0.9230769230769231 0  -0.05 0.9615384615384616 0  -0.025 0.9615384615384616 0  0 0.9615384615384616 0  0.02500000000000001 0.9615384615384616 0  0.05 0.9615384615384616 0  -0.05 1 0  -0.025 1 0  0 1 0  0.02500000000000001 1 0  0.05 1 0  </DataArray>
</Points>
<Cells>
<DataArray  type="UInt32"  Name="connectivity"  format="ascii">0 1 6  0 5 6  1 2 7  1 6 7  2 3 8  2 7 8  3 4 9  3 8 9  5 6 11  5 10 11  6 7 12  6 11 12  7 8 13  7 12 13  8 9 14  8 13 14  10 11 16  10 15 16  11 12 17  11 16 17  12 13 18  12 17 18  13 14 19  13 18 19  15 16 21  15 20 21  16 17 22  16 21 22  17 18 23  17 22 23  18 19 24  18 23 24  20 21 26  20 25 26  21 22 27  21 26 27  22 23 28  22 27 28  23 24 29  23 28 29  25 26 31  25 30 31  26 27 32  26 31 32  27 28 33  27 32 33  28 29 34  28 33 34  30 31 36  30 35 36  31 32 37  31 36 37  32 33 38  32 37 38  33 34 39  33 38 39  35 36 41  35 40 41  36 37 42  36 41 42  37 38 43  37 42 43  38 39 44  38 43 44  40 41 46  40 45 46  41 42 47  41 46 47  42 43 48  42 47 48  43 44 49  43 48 49  45 46 51  45 50 51  46 47 52  46 51 52  47 48 53  47 52 53  48 49 54  48 53 54  50 51 56  50 55 56  51 52 57  51 56 57  52 53 58  52 57 58  53 54 59  53 58 59  55 56 61  55 60 61  56 57 62  56 61 62  57 58 63  57 62 63  58 59 64  58 63 64  60 61 66  60 65 66  61 62 67  61 66 67  62 63 68  62 67 68  63 64 69  63 68 69  65 66 71  65 70 71  66 67 72  66 71 72  67 68 73  67 72 73  68 69 74  68 73 74  70 71 76  70 75 76  71 72 77  71 76 77  72 73 78  72 77 78  73 74 79  73 78 79  75 76 81  75 80 81  76 77 82  76 81 82  77 78 83  77 82 83  78 79 84  78 83 84  80 81 86  80 85 86  81 82 87  81 86 87  82 83 88  82 87 88  83 84 89  83 88 89  85 86 91  85 90 91  86 87 92  86 91 92  87 88 93  87 92 93  88 89 94  88 93 94  90 91 96  90 95 96  91 92 97  91 96 97  92 93 98  92 97 98  93 94 99  93 98 99  95 96 101  95 100 101  96 97 102  96 101 102  97 98 103  97 102 103  98 99 104  98 103 104  100 101 106  100 105 106  101 102 107  101 106 107  102 103 108  102 107 108  103 104 109  103 108 109  105 106 111  105 110 111  106 107 112  106 111 112  107 108 113  107 112 113  108 109 114  108 113 114  110 111 116  110 115 116  111 112 117  111 116 117  112 113 118  112 117 118  113 114 119  113 118 119  115 116 121  115 120 121  116 117 122  116 121 122  117 118 123  117 122 123  118 119 124  118 123 124  120 121 126  120 125 126  121 122 127  121 126 127  122 123 128  122 127 128  123 124 129  123 128 129  125 126 131  125 130 131  126 127 132  126 131 132  127 128 133  127 132 133  128 129 134  128 133 134  </DataArray>
<DataArray  type="UInt32"  Name="offsets"  format="ascii">3 6 9 12 15 18 21 24 27 30 33 36 39 42 45 48 51 54 57 60 63 66 69 72 75 78 81 84 87 90 93 96 99 102 105 108 111 114 117 120 123 126 129 132 135 138 141 144 147 150 153 156 159 162 165 168 171 174 177 180 183 186 189 192 195 198 201 204 207 210 213 216 219 222 225 228 231 234 237 240 243 246 249 252 255 258 261 264 267 270 273 276 279 282 285 288 291 294 297 300 303 306 309 312 315 318 321 324 327 330 333 336 339 342 345 348 351 354 357 360 363 366 369 372 375 378 381 384 387 390 393 396 399 402 405 408 411 414 417 420 423 426 429 432 435 438 441 444 447 450 453 456 459 462 465 468 471 474 477 480 483 486 489 492 495 498 501 504 507 510 513 516 519 522 525 528 531 534 537 540 543 546 549 552 555 558 561 564 567 570 573 576 579 582 585 588 591 594 597 600 603 606 609 612 615 618 621 624 </DataArray>
<DataArray  type="UInt8"  Name="types"  format="ascii">5 5 5 5 5 5 5 5 5 5 5 5 5 5 5 5 5 5 5 5 5 5 5 5 5 5 5 5 5 5 5 5 5 5 5 5 5 5 5 5 5 5 5 5 5 5 5 5 5 5 5 5 5 5 5 5 5 5 5 5 5 5 5 5 5 5 5 5 5 5 5 5 5 5 5 5 5 5 5 5 5 5 5 5 5 5 5 5 5 5 5 5 5 5 5 5 5 5 5 5 5 5 5 5 5 5 5 5 5 5 5 5 5 5 5 5 5 5 5 5 5 5 5 5 5 5 5 5 5 5 5 5 5 5 5 5 5 5 5 5 5 5 5 5 5 5 5 5 5 5 5 5 5 5 5 5 5 5 5 5 5 5 5 5 5 5 5 5 5 5 5 5 5 5 5 5 5 5 5 5 5 5 5 5 5 5 5 5 5 5 5 5 5 5 5 5 5 5 5 5 5 5 5 5 5 5 5 5 </DataArray>
</Cells>
<PointData  Vectors="Displacement"> 
<DataArray  type="Float64"  Name="Displacement"  NumberOfComponents="3" format="ascii">-4.2309784010580933e-16 3.1685877826486067e-18 0.0000000000000000e+00  0.0000000000000000e+00 0.0000000000000000e+00 0.0000000000000000e+00  0.0000000000000000e+00 0.0000000000000000e+00 0.0000000000000000e+00  -7.1687209871963447e-17 9.6709750307093507e-19 0.0000000000000000e+00  2.1506162961589035e-16 -2.9012925092128052e-18 0.0000000000000000e+00  1.3149735998672780e-04 2.2528808792293583e-04 0.0000000000000000e+00  7.9580355814246997e-05 1.0983262927270824e-04 0.0000000000000000e+00  6.1566163904161036e-05 -4.3480540137854722e-06 0.0000000000000000e+00  7.8187338053667350e-05 -1.1794897871872622e-04 0.0000000000000000e+00  1.3168573048290952e-04 -2.3684289247524219e-04 0.0000000000000000e+00  3.9643069343745977e-04 4.6162587310199198e-04 0.0000000000000000e+00  3.4570132104971005e-04 2.2606039481924380e-04 0.0000000000000000e+00  3.2985670682710125e-04 -9.4191302314495808e-06 0.0000000000000000e+00  3.4781889013208892e-04 -2.4561976099838435e-04 0.0000000000000000e+00  4.0019829634995471e-04 -4.8202736400308321e-04 0.0000000000000000e+00  8.5603119700165169e-04 7.0213848695114579e-04 0.0000000000000000e+00  8.0531626974264514e-04 3.4213391071952583e-04 0.0000000000000000e+00  7.8980305400398916e-04 -1.4933656740782534e-05 0.0000000000000000e+00  8.0711760638643888e-04 -3.7191527827271759e-04 0.0000000000000000e+00  8.5894785770741615e-04 -7.3047134031110439e-04 0.0000000000000000e+00  1.5070963599116054e-03 9.3761023529750280e-04 0.0000000000000000e+00  1.4574919823390389e-03 4.5703335576362616e-04 0.0000000000000000e+00  1.4417426986932367e-03 -1.8793360613903320e-05 0.0000000000000000e+00  1.4578552320930139e-03 -4.9468861606447772e-04 0.0000000000000000e+00  1.5083277052295786e-03 -9.7481384393985186e-04 0.0000000000000000e+00  2.3435851063540918e-03 1.1665197040225731e-03 0.0000000000000000e+00  2.2964214476695333e-03 5.6851598739913567e-04 0.0000000000000000e+00  2.2812287424152700e-03 -2.2311644906197906e-05 0.0000000000000000e+00  2.2970854924843909e-03 -6.1316084838362232e-04 0.0000000000000000e+00  2.3450999549513032e-03 -1.2103523753279636e-03 0.0000000000000000e+00  3.3575806853230624e-03 1.3817099316753366e-03 0.0000000000000000e+00  3.3123185277039975e-03 6.7459882462130407e-04 0.0000000000000000e+00  3.2981208977563071e-03 -2.5271643866198048e-05 0.0000000000000000e+00  3.3125739965617208e-03 -7.2521167372963460e-04 0.0000000000000000e+00  3.3580987272483244e-03 -1.4320590883171976e-03 0.0000000000000000e+00  4.5339989647147274e-03 1.5841367352747964e-03 0.0000000000000000e+00  4.4929953865555606e-03 7.7332286804417398e-04 0.0000000000000000e+00  4.4797857596208706e-03 -2.8268364232308317e-05 0.0000000000000000e+00  4.4935575382124620e-03 -8.3008461955254764e-04 0.0000000000000000e+00  4.5355777165643303e-03 -1.6405824006968585e-03 0.0000000000000000e+00  5.8688754104002346e-03 1.7696769601364274e-03 0.0000000000000000e+00  5.8309179704617150e-03 8.6370684521083882e-04 0.0000000000000000e+00  5.8192331691675229e-03 -3.1423299961035794e-05 0.0000000000000000e+00  5.8314884539540117e-03 -9.2654250857426726e-04 0.0000000000000000e+00  5.8698525642566432e-03 -1.8319492088912826e-03 0.0000000000000000e+00  7.3407601945751520e-03 1.9336048783829148e-03 0.0000000000000000e+00  7.3079357652376083e-03 9.4382663024038845e-04 0.0000000000000000e+00  7.2976110328920353e-03 -3.4304726111530314e-05 0.0000000000000000e+00  7.3084930361404250e-03 -1.0126891302029832e-03 0.0000000000000000e+00  7.3423002960553594e-03 -2.0023867686016282e-03 0.0000000000000000e+00  8.9383347738395801e-03 2.0777546001227959e-03 0.0000000000000000e+00  8.9103781343937375e-03 1.0127063955659614e-03 0.0000000000000000e+00  8.9019463156295598e-03 -3.7471841916347925e-05 0.0000000000000000e+00  8.9111119057157032e-03 -1.0875243094122221e-03 0.0000000000000000e+00  8.9396760496256236e-03 -2.1514441949146202e-03 0.0000000000000000e+00  1.0643649714876115e-02 2.1928464331462689e-03 0.0000000000000000e+00  1.0621505251277315e-02 1.0685449258503895e-03 0.0000000000000000e+00  1.0614686617192859e-02 -3.9640806354198324e-05 0.0000000000000000e+00  1.0621370971222805e-02 -1.1477864840176138e-03 0.0000000000000000e+00  1.0643797114844396e-02 -2.2713860841862043e-03 0.0000000000000000e+00  1.2428299049572090e-02 2.2782151422947204e-03 0.0000000000000000e+00  1.2413081154399097e-02 1.1098761784597293e-03 0.0000000000000000e+00  1.2407986164597295e-02 -4.1306044635528557e-05 0.0000000000000000e+00  1.2412698582013559e-02 -1.1922655600042401e-03 0.0000000000000000e+00  1.2427950764285350e-02 -2.3590683720589459e-03 0.0000000000000000e+00  1.4268319269402989e-02 2.3310389870555520e-03 0.0000000000000000e+00  1.4258085177533238e-02 1.1369901554888391e-03 0.0000000000000000e+00  1.4254697967998950e-02 -4.1630885563122798e-05 0.0000000000000000e+00  1.4256515734472789e-02 -1.2199955060260249e-03 0.0000000000000000e+00  1.4265410233608718e-02 -2.4127451871402950e-03 0.0000000000000000e+00  1.6131318998829344e-02 2.3554016839933017e-03 0.0000000000000000e+00  1.6127715927804896e-02 1.1501659611966824e-03 0.0000000000000000e+00  1.6125856819790250e-02 -4.0999007020894925e-05 0.0000000000000000e+00  1.6125807434299717e-02 -1.2322546943676280e-03 0.0000000000000000e+00  1.6128373103394256e-02 -2.4367681320515895e-03 0.0000000000000000e+00  1.8003059019582848e-02 2.3545795163785895e-03 0.0000000000000000e+00  1.8003791556660001e-02 1.1507126994079390e-03 0.0000000000000000e+00  1.8003751967774737e-02 -4.0187738466713682e-05 0.0000000000000000e+00  1.8001781197998806e-02 -1.2310953045032772e-03 0.0000000000000000e+00  1.7999279045204788e-02 -2.4341523273369876e-03 0.0000000000000000e+00  1.9857242512010848e-02 2.3272054965906889e-03 0.0000000000000000e+00  1.9863028123237713e-02 1.1392390201309828e-03 0.0000000000000000e+00  1.9864394628195010e-02 -3.9219127411240689e-05 0.0000000000000000e+00  1.9861301241918757e-02 -1.2181218010980219e-03 0.0000000000000000e+00  1.9854409948787871e-02 -2.4063224943255733e-03 0.0000000000000000e+00  2.1675951796786195e-02 2.2821341194770705e-03 0.0000000000000000e+00  2.1684897697909492e-02 1.1181459224799571e-03 0.0000000000000000e+00  2.1687713017077660e-02 -3.9490231880972637e-05 0.0000000000000000e+00  2.1684170140812760e-02 -1.1972533014390060e-03 0.0000000000000000e+00  2.1674250729856816e-02 -2.3606286021775592e-03 0.0000000000000000e+00  2.3447800859338765e-02 2.2241076425869788e-03 0.0000000000000000e+00  2.3457769673477985e-02 1.0910191006892366e-03 0.0000000000000000e+00  2.3461212668950075e-02 -4.0163811856891069e-05 0.0000000000000000e+00  2.3457097502249977e-02 -1.1714513230665848e-03 0.0000000000000000e+00  2.3446222047807181e-02 -2.3039753268216971e-03 0.0000000000000000e+00  2.5165005625468865e-02 2.1638121127454100e-03 0.0000000000000000e+00  2.5176028929843913e-02 1.0612728218104830e-03 0.0000000000000000e+00  2.5179619040111151e-02 -4.1822025155371784e-05 0.0000000000000000e+00  2.5175782078179644e-02 -1.1448535659673838e-03 0.0000000000000000e+00  2.5164544486776880e-02 -2.2464625045908238e-03 0.0000000000000000e+00  2.6835941129951187e-02 2.1055335478158202e-03 0.0000000000000000e+00  2.6844898827372423e-02 1.0323253468246386e-03 0.0000000000000000e+00  2.6848172250004368e-02 -4.3907165921029545e-05 0.0000000000000000e+00  2.6844415869702289e-02 -1.1201164895985019e-03 0.0000000000000000e+00  2.6834917980230352e-02 -2.1921973672026874e-03 0.0000000000000000e+00  2.8457459760089700e-02 2.0527809514731547e-03 0.0000000000000000e+00  2.8465900776995907e-02 1.0057826862981810e-03 0.0000000000000000e+00  2.8468961480185469e-02 -4.6579844125735974e-05 0.0000000000000000e+00  2.8466230986903967e-02 -1.0994562968697360e-03 0.0000000000000000e+00  2.8458368172187852e-02 -2.1467523798629766e-03 0.0000000000000000e+00  3.0046094161684543e-02 2.0123465540253776e-03 0.0000000000000000e+00  3.0052030579222941e-02 9.8296232338608135e-04 0.0000000000000000e+00  3.0055425538158969e-02 -5.0981453555487030e-05 0.0000000000000000e+00  3.0054040492231541e-02 -1.0848723545399347e-03 0.0000000000000000e+00  3.0048953090688030e-02 -2.1132920050759983e-03 0.0000000000000000e+00  3.1610845911117284e-02 1.9800900003623541e-03 0.0000000000000000e+00  3.1615128297722055e-02 9.6377039316736452e-04 0.0000000000000000e+00  3.1617989010292238e-02 -5.6496903217925063e-05 0.0000000000000000e+00  3.1617511623092426e-02 -1.0759481922192761e-03 0.0000000000000000e+00  3.1614838160463524e-02 -2.0900756185010618e-03 0.0000000000000000e+00  3.3158405415155218e-02 1.9559869203205514e-03 0.0000000000000000e+00  3.3161743453948594e-02 9.4788880046799964e-04 0.0000000000000000e+00  3.3164684296476316e-02 -6.3451289692569141e-05 0.0000000000000000e+00  3.3165207306884201e-02 -1.0722441926630216e-03 0.0000000000000000e+00  3.3163784397947101e-02 -2.0773535150436745e-03 0.0000000000000000e+00  3.4695130896870617e-02 1.9404486025411921e-03 0.0000000000000000e+00  3.4695596455765809e-02 9.3480138639980275e-04 0.0000000000000000e+00  3.4699396366930174e-02 -7.3843559798560823e-05 0.0000000000000000e+00  3.4702701475393373e-02 -1.0724298639082956e-03 0.0000000000000000e+00  3.4703909722453255e-02 -2.0664540269722826e-03 0.0000000000000000e+00  3.6234277944907183e-02 1.9411455971971945e-03 0.0000000000000000e+00  3.6229989894735928e-02 9.3129115261912762e-04 0.0000000000000000e+00  3.6199692657011215e-02 -1.0901864604602758e-04 0.0000000000000000e+00  3.6219674140248959e-02 -1.0713553113374358e-03 0.0000000000000000e+00  3.6221452021826542e-02 -2.0604563913257296e-03 0.0000000000000000e+00  </DataArray> 
</PointData> 
</Piece>
</UnstructuredGrid>
</VTKFile>