<?xml version="1.0"?>
<VTKFile type="UnstructuredGrid"  version="0.1"  >
<UnstructuredGrid>
<Piece  NumberOfPoints="135" NumberOfCells="208">
<Points>
<DataArray  type="Float64"  NumberOfComponents="3"  format="ascii">-0.05 0 0  -0.025 0 0  0 0 0  0.02500000000000001 0 0  0.05 0 0  -0.05 0.03846153846153846 0  -0.025 0.03846153846153846 0  0 0.03846153846153846 0  0.02500000000000001 0.03846153846153846 0  0.05 0.03846153846153846 0  -0.05 0.07692307692307693 0  -0.025 0.07692307692307693 0  0 0.07692307692307693 0  0.02500000000000001 0.07692307692307693 0  0.05 0.07692307692307693 0  -0.05 0.1153846153846154 0  -0.025 0.1153846153846154 0  0 0.1153846153846154 0  0.02500000000000001 0.1153846153846154 0  0.05 0.1153846153846154 0  -0.05 0.1538461538461539 0  -0.025 0.1538461538461539 0  0 0.1538461538461539 0  0.02500000000000001 0.1538461538461539 0  0.05 0.1538461538461539 0  -0.05 0.1923076923076923 0  -0.025 0.1923076923076923 0  0 0.1923076923076923 0  0.02500000000000001 0.1923076923076923 0  0.05 0.1923076923076923 0  -0.05 0.2307692307692308 0  -0.025 0.2307692307692308 0  0 0.2307692307692308 0  0.02500000000000001 0.2307692307692308 0  0.05 0.2307692307692308 0  -0.05 0.2692307692307692 0  -0.025 0.2692307692307692 0  0 0.2692307692307692 0  0.02500000000000001 0.2692307692307692 0  0.05 0.2692307692307692 0  -0.05 0.3076923076923077 0  -0.025 0.3076923076923077 0  0 0.3076923076923077 0  0.02500000000000001 0.3076923076923077 0  0.05 0.3076923076923077 0  -0.05 0.3461538461538461 0  -0.025 0.3461538461538461 0  0 0.3461538461538461 0  0.02500000000000001 0.3461538461538461 0  0.05 0.3461538461538461 0  -0.05 0.3846153846153846 0  -0.025 0.3846153846153846 0  0 0.3846153846153846 0  0.02500000000000001 0.3846153846153846 0  0.05 0.3846153846153846 0  -0.05 0.4230769230769231 0  -0.025 0.4230769230769231 0  0 0.4230769230769231 0  0.02500000000000001 0.4230769230769231 0  0.05 0.4230769230769231 0  -0.05 0.4615384615384616 0  -0.025 0.4615384615384616 0  0 0.4615384615384616 0  0.02500000000000001 0.4615384615384616 0  0.05 0.4615384615384616 0  -0.05 0.5 0  -0.025 0.5 0  0 0.5 0  0.02500000000000001 0.5 0  0.05 0.5 0  -0.05 0.5384615384615384 0  -0.025 0.5384615384615384 0  0 0.5384615384615384 0  0.02500000000000001 0.5384615384615384 0  0.05 0.5384615384615384 0  -0.05 0.5769230769230769 0  -0.025 0.5769230769230769 0  0 0.5769230769230769 0  0.02500000000000001 0.5769230769230769 0  0.05 0.5769230769230769 0  -0.05 0.6153846153846154 0  -0.025 0.6153846153846154 0  0 0.6153846153846154 0  0.02500000000000001 0.6153846153846154 0  0.05 0.6153846153846154 0  -0.05 0.6538461538461539 0  -0.025 0.6538461538461539 0  0 0.6538461538461539 0  0.02500000000000001 0.6538461538461539 0  0.05 0.6538461538461539 0  -0.05 0.6923076923076923 0  -0.025 0.6923076923076923 0  0 0.6923076923076923 0  0.02500000000000001 0.6923076923076923 0  0.05 0.6923076923076923 0  -0.05 0.7307692307692307 0  -0.025 0.7307692307692307 0  0 0.7307692307692307 0  0.02500000000000001 0.7307692307692307 0  0.05 0.7307692307692307 0  -0.05 0.7692307692307693 0  -0.025 0.7692307692307693 0  0 0.7692307692307693 0  0.02500000000000001 0.7692307692307693 0  0.05 0.7692307692307693 0  -0.05 0.8076923076923077 0  -0.025 0.8076923076923077 0  0 0.8076923076923077 0  0.02500000000000001 0.8076923076923077 0  0.05 0.8076923076923077 0  -0.05 0.8461538461538461 0  -0.025 0.8461538461538461 0  0 0.8461538461538461 0  0.02500000000000001 0.8461538461538461 0  0.05 0.8461538461538461 0  -0.05 0.8846153846153846 0  -0.025 0.8846153846153846 0  0 0.8846153846153846 0  0.02500000000000001 0.8846153846153846 0  0.05 0.8846153846153846 0  -0.05 0.9230769230769231 0  -0.025 0.9230769230769231 0  0 0.9230769230769231 0  0.02500000000000001 0.9230769230769231 0  0.05 0.9230769230769231 0  -0.05 0.9615384615384616 0  -0.025 0.9615384615384616 0  0 0.9615384615384616 0  0.02500000000000001 0.9615384615384616 0  0.05 0.9615384615384616 0  -0.05 1 0  -0.025 1 0  0 1 0  0.02500000000000001 1 0  0.05 1 0  </DataArray>
</Points>
<Cells>
<DataArray  type="UInt32"  Name="connectivity"  format="ascii">0 1 6  0 5 6  1 2 7  1 6 7  2 3 8  2 7 8  3 4 9  3 8 9  5 6 11  5 10 11  6 7 12  6 11 12  7 8 13  7 12 13  8 9 14  8 13 14  10 11 16  10 15 16  11 12 17  11 16 17  12 13 18  12 17 18  13 14 19  13 18 19  15 16 21  15 20 21  16 17 22  16 21 22  17 18 23  17 22 23  18 19 24  18 23 24  20 21 26  20 25 26  21 22 27  21 26 27  22 23 28  22 27 28  23 24 29  23 28 29  25 26 31  25 30 31  26 27 32  26 31 32  27 28 33  27 32 33  28 29 34  28 33 34  30 31 36  30 35 36  31 32 37  31 36 37  32 33 38  32 37 38  33 34 39  33 38 39  35 36 41  35 40 41  36 37 42  36 41 42  37 38 43  37 42 43  38 39 44  38 43 44  40 41 46  40 45 46  41 42 47  41 46 47  42 43 48  42 47 48  43 44 49  43 48 49  45 46 51  45 50 51  46 47 52  46 51 52  47 48 53  47 52 53  48 49 54  48 53 54  50 51 56  50 55 56  51 52 57  51 56 57  52 53 58  52 57 58  53 54 59  53 58 59  55 56 61  55 60 61  56 57 62  56 61 62  57 58 63  57 62 63  58 59 64  58 63 64  60 61 66  60 65 66  61 62 67  61 66 67  62 63 68  62 67 68  63 64 69  63 68 69  65 66 71  65 70 71  66 67 72  66 71 72  67 68 73  67 72 73  68 69 74  68 73 74  70 71 76  70 75 76  71 72 77  71 76 77  72 73 78  72 77 78  73 74 79  73 78 79  75 76 81  75 80 81  76 77 82  76 81 82  77 78 83  77 82 83  78 79 84  78 83 84  80 81 86  80 85 86  81 82 87  81 86 87  82 83 88  82 87 88  83 84 89  83 88 89  85 86 91  85 90 91  86 87 92  86 91 92  87 88 93  87 92 93  88 89 94  88 93 94  90 91 96  90 95 96  91 92 97  91 96 97  92 93 98  92 97 98  93 94 99  93 98 99  95 96 101  95 100 101  96 97 102  96 101 102  97 98 103  97 102 103  98 99 104  98 103 104  100 101 106  100 105 106  101 102 107  101 106 107  102 103 108  102 107 108  103 104 109  103 108 109  105 106 111  105 110 111  106 107 112  106 111 112  107 108 113  107 112 113  108 109 114  108 113 114  110 111 116  110 115 116  111 112 117  111 116 117  112 113 118  112 117 118  113 114 119  113 118 119  115 116 121  115 120 121  116 117 122  116 121 122  117 118 123  117 122 123  118 119 124  118 123 124  120 121 126  120 125 126  121 122 127  121 126 127  122 123 128  122 127 128  123 124 129  123 128 129  125 126 131  125 130 131  126 127 132  126 131 132  127 128 133  127 132 133  128 129 134  128 133 134  </DataArray>
<DataArray  type="UInt32"  Name="offsets"  format="ascii">3 6 9 12 15 18 21 24 27 30 33 36 39 42 45 48 51 54 57 60 63 66 69 72 75 78 81 84 87 90 93 96 99 102 105 108 111 114 117 120 123 126 129 132 135 138 141 144 147 150 153 156 159 162 165 168 171 174 177 180 183 186 189 192 195 198 201 204 207 210 213 216 219 222 225 228 231 234 237 240 243 246 249 252 255 258 261 264 267 270 273 276 279 282 285 288 291 294 297 300 303 306 309 312 315 318 321 324 327 330 333 336 339 342 345 348 351 354 357 360 363 366 369 372 375 378 381 384 387 390 393 396 399 402 405 408 411 414 417 420 423 426 429 432 435 438 441 444 447 450 453 456 459 462 465 468 471 474 477 480 483 486 489 492 495 498 501 504 507 510 513 516 519 522 525 528 531 534 537 540 543 546 549 552 555 558 561 564 567 570 573 576 579 582 585 588 591 594 597 600 603 606 609 612 615 618 621 624 </DataArray>
<DataArray  type="UInt8"  Name="types"  format="ascii">5 5 5 5 5 5 5 5 5 5 5 5 5 5 5 5 5 5 5 5 5 5 5 5 5 5 5 5 5 5 5 5 5 5 5 5 5 5 5 5 5 5 5 5 5 5 5 5 5 5 5 5 5 5 5 5 5 5 5 5 5 5 5 5 5 5 5 5 5 5 5 5 5 5 5 5 5 5 5 5 5 5 5 5 5 5 5 5 5 5 5 5 5 5 5 5 5 5 5 5 5 5 5 5 5 5 5 5 5 5 5 5 5 5 5 5 5 5 5 5 5 5 5 5 5 5 5 5 5 5 5 5 5 5 5 5 5 5 5 5 5 5 5 5 5 5 5 5 5 5 5 5 5 5 5 5 5 5 5 5 5 5 5 5 5 5 5 5 5 5 5 5 5 5 5 5 5 5 5 5 5 5 5 5 5 5 5 5 5 5 5 5 5 5 5 5 5 5 5 5 5 5 5 5 5 5 5 5 </DataArray>
</Cells>
<PointData  Vectors="Displacement"> 
<DataArray  type="Float64"  Name="Displacement"  NumberOfComponents="3" format="ascii">-4.7360707960068586e-16 4.7669361325084458e-18 0.0000000000000000e+00  0.0000000000000000e+00 0.0000000000000000e+00 0.0000000000000000e+00  0.0000000000000000e+00 0.0000000000000000e+00 0.0000000000000000e+00  -5.7924490953446310e-17 8.4560803424054620e-19 0.0000000000000000e+00  1.7377347286033894e-16 -2.5368241027216388e-18 0.0000000000000000e+00  2.6622470668491769e-04 3.0946122145854808e-04 0.0000000000000000e+00  2.0942364635295169e-04 1.2972460111891518e-04 0.0000000000000000e+00  1.8963951240648854e-04 -1.0570276823580931e-05 0.0000000000000000e+00  2.1013581445397829e-04 -1.4831435768154555e-04 0.0000000000000000e+00  2.7493648541946291e-04 -3.3211447186753604e-04 0.0000000000000000e+00  6.7913775829289995e-04 5.4089846438761132e-04 0.0000000000000000e+00  6.3702184648676045e-04 2.4243967050741785e-04 0.0000000000000000e+00  6.2418687912585424e-04 -2.0801081994224398e-05 0.0000000000000000e+00  6.4192079644768225e-04 -2.8392277652280746e-04 0.0000000000000000e+00  6.8977187170790220e-04 -5.8203606899095539e-04 0.0000000000000000e+00  1.2524383616111397e-03 7.0700725946936044e-04 0.0000000000000000e+00  1.2233518852616118e-03 3.2153802985107318e-04 0.0000000000000000e+00  1.2145309236301167e-03 -3.1387237028098446e-05 0.0000000000000000e+00  1.2274020095358826e-03 -3.8345806050768988e-04 0.0000000000000000e+00  1.2617153350645467e-03 -7.6727185863513438e-04 0.0000000000000000e+00  1.9277251474774668e-03 8.1123867067014381e-04 0.0000000000000000e+00  1.9100601700271455e-03 3.7096482909559409e-04 0.0000000000000000e+00  1.9049024937758672e-03 -4.0561490884115237e-05 0.0000000000000000e+00  1.9134644571739648e-03 -4.5163062740419810e-04 0.0000000000000000e+00  1.9354445366067971e-03 -8.9048605946242295e-04 0.0000000000000000e+00  2.6621680569377799e-03 8.6224667583142782e-04 0.0000000000000000e+00  2.6559949344277132e-03 3.9379149888775912e-04 0.0000000000000000e+00  2.6545271899494111e-03 -4.8689154942917472e-05 0.0000000000000000e+00  2.6588342427971497e-03 -4.9138559453993367e-04 0.0000000000000000e+00  2.6694997062349946e-03 -9.5987522758113461e-04 0.0000000000000000e+00  3.4205329136772211e-03 8.6564284207000305e-04 0.0000000000000000e+00  3.4223903603627132e-03 3.9273185735187510e-04 0.0000000000000000e+00  3.4239528448828369e-03 -5.7267209189170813e-05 0.0000000000000000e+00  3.4261398584779792e-03 -5.0726897876842173e-04 0.0000000000000000e+00  3.4280524368305665e-03 -9.8004762709100971e-04 0.0000000000000000e+00  4.1613852720791406e-03 8.2586663129392737e-04 0.0000000000000000e+00  4.1731723381015278e-03 3.7001951340595877e-04 0.0000000000000000e+00  4.1780236692364643e-03 -6.5988389573036135e-05 0.0000000000000000e+00  4.1770539125457837e-03 -5.0175142472877791e-04 0.0000000000000000e+00  4.1697921514472353e-03 -9.5632287531094114e-04 0.0000000000000000e+00  4.8591443183661192e-03 7.4822061736702617e-04 0.0000000000000000e+00  4.8759408833565420e-03 3.2960476097653981e-04 0.0000000000000000e+00  4.8815653911435169e-03 -7.4397093273125103e-05 0.0000000000000000e+00  4.8778535365114175e-03 -4.7809092547237243e-04 0.0000000000000000e+00  4.8642321425053500e-03 -8.9576833952963175e-04 0.0000000000000000e+00  5.4770214672662304e-03 6.4301062361768902e-04 0.0000000000000000e+00  5.4992178663115249e-03 2.7579920428682164e-04 0.0000000000000000e+00  5.5073431589505641e-03 -8.2475949649330458e-05 0.0000000000000000e+00  5.5026613646492360e-03 -4.4095184860183954e-04 0.0000000000000000e+00  5.4842261063051392e-03 -8.0822507074669462e-04 0.0000000000000000e+00  6.0063539828085766e-03 5.2283605821277373e-04 0.0000000000000000e+00  6.0306149847678004e-03 2.1323624913897771e-04 0.0000000000000000e+00  6.0393401691004591e-03 -9.1332796155404948e-05 0.0000000000000000e+00  6.0334102715766166e-03 -3.9585203225212488e-04 0.0000000000000000e+00  6.0124109549663397e-03 -7.0448135352554214e-04 0.0000000000000000e+00  6.4391862714780488e-03 3.9633526566200373e-04 0.0000000000000000e+00  6.4634081808339575e-03 1.4771450134814308e-04 0.0000000000000000e+00  6.4721445674138832e-03 -9.9534457895307892e-05 0.0000000000000000e+00  6.4660168375560486e-03 -3.4665525800942494e-04 0.0000000000000000e+00  6.4444187847943835e-03 -5.9470989532940828e-04 0.0000000000000000e+00  6.7737308391579458e-03 2.7045771884227449e-04 0.0000000000000000e+00  6.7990883318222207e-03 8.1225315385675823e-05 0.0000000000000000e+00  6.8085210626354494e-03 -1.0767411726230960e-04 0.0000000000000000e+00  6.8021050101388257e-03 -2.9641353886223758e-04 0.0000000000000000e+00  6.7800456737338944e-03 -4.8468755514808221e-04 0.0000000000000000e+00  7.0208279217234800e-03 1.4728447587779707e-04 0.0000000000000000e+00  7.0437260092540317e-03 1.6235048300740343e-05 0.0000000000000000e+00  7.0516784402228786e-03 -1.1543928925424057e-04 0.0000000000000000e+00  7.0450812406155951e-03 -2.4675748796004846e-04 0.0000000000000000e+00  7.0239625051736129e-03 -3.7634120403353370e-04 0.0000000000000000e+00  7.1735894487030974e-03 2.7264116203956575e-05 0.0000000000000000e+00  7.1973568015894955e-03 -4.6659518732931150e-05 0.0000000000000000e+00  7.2059914758586417e-03 -1.2193118720628782e-04 0.0000000000000000e+00  7.1994989465462454e-03 -1.9727330681720666e-04 0.0000000000000000e+00  7.1781455250491243e-03 -2.7067802122063370e-04 0.0000000000000000e+00  7.2441439015513273e-03 -8.7288197755244941e-05 0.0000000000000000e+00  7.2655233684787721e-03 -1.0708451666951604e-04 0.0000000000000000e+00  7.2730485757971043e-03 -1.2820670307332930e-04 0.0000000000000000e+00  7.2665198067474231e-03 -1.4888878932522450e-04 0.0000000000000000e+00  7.2461359784752547e-03 -1.6702753656934764e-04 0.0000000000000000e+00  7.2296387443146386e-03 -1.9677303526074798e-04 0.0000000000000000e+00  7.2503501751383136e-03 -1.6416382191436989e-04 0.0000000000000000e+00  7.2576718704053123e-03 -1.3316358223591413e-04 0.0000000000000000e+00  7.2514303170257907e-03 -1.0150251545540155e-04 0.0000000000000000e+00  7.2316044684461516e-03 -6.7066673450073415e-05 0.0000000000000000e+00  7.1371752843724769e-03 -2.9997055673498064e-04 0.0000000000000000e+00  7.1566968330397862e-03 -2.1810604175961508e-04 0.0000000000000000e+00  7.1630032987439777e-03 -1.3726570098723291e-04 0.0000000000000000e+00  7.1559671969442908e-03 -5.5822838701288122e-05 0.0000000000000000e+00  7.1367826401713026e-03 2.8038904668349830e-05 0.0000000000000000e+00  6.9744372533255775e-03 -3.9714477256129184e-04 0.0000000000000000e+00  6.9924695489394012e-03 -2.6886857573407810e-04 0.0000000000000000e+00  6.9983538525069796e-03 -1.3984525744463596e-04 0.0000000000000000e+00  6.9916525724809326e-03 -1.0764318543598788e-05 0.0000000000000000e+00  6.9731774152059812e-03 1.1816327969615742e-04 0.0000000000000000e+00  6.7403165658421731e-03 -4.9519797838977529e-04 0.0000000000000000e+00  6.7607848048929237e-03 -3.2008158873006714e-04 0.0000000000000000e+00  6.7678286644714631e-03 -1.4228736610364591e-04 0.0000000000000000e+00  6.7610604841792550e-03 3.5613728321554284e-05 0.0000000000000000e+00  6.7410855387417101e-03 2.1174676064288544e-04 0.0000000000000000e+00  6.4366621428847415e-03 -5.9939807136718452e-04 0.0000000000000000e+00  6.4564639136757357e-03 -3.7289493555321240e-04 0.0000000000000000e+00  6.4623961835505936e-03 -1.4398766438566184e-04 0.0000000000000000e+00  6.4549650277975863e-03 8.4687299562561088e-05 0.0000000000000000e+00  6.4346266099327811e-03 3.1205144117191913e-04 0.0000000000000000e+00  6.0432636827941573e-03 -7.0998062913248485e-04 0.0000000000000000e+00  6.0648008999161394e-03 -4.2782310293222684e-04 0.0000000000000000e+00  6.0720899208226162e-03 -1.4578470011990588e-04 0.0000000000000000e+00  6.0656327427628101e-03 1.3535195560925338e-04 0.0000000000000000e+00  6.0446267318647823e-03 4.1789036578173468e-04 0.0000000000000000e+00  5.5629110021207986e-03 -8.1872009597659125e-04 0.0000000000000000e+00  5.5813523038511954e-03 -4.8113857346097027e-04 0.0000000000000000e+00  5.5867311409939007e-03 -1.4914054178783527e-04 0.0000000000000000e+00  5.5802701968291684e-03 1.8297501915050317e-04 0.0000000000000000e+00  5.5611702370479358e-03 5.2228337746528159e-04 0.0000000000000000e+00  4.9907806125423712e-03 -9.1515714110870783e-04 0.0000000000000000e+00  5.0057123288311323e-03 -5.2854680234939761e-04 0.0000000000000000e+00  5.0105773483194544e-03 -1.5217816239307375e-04 0.0000000000000000e+00  5.0055565128522064e-03 2.2380292756492775e-04 0.0000000000000000e+00  4.9906790954156810e-03 6.1058699081709578e-04 0.0000000000000000e+00  4.3484425962581280e-03 -9.8716575010718895e-04 0.0000000000000000e+00  4.3587891014790223e-03 -5.6591543521893625e-04 0.0000000000000000e+00  4.3639251697632515e-03 -1.5719843039486601e-04 0.0000000000000000e+00  4.3624777452116858e-03 2.5233216725299945e-04 0.0000000000000000e+00  4.3532425515636422e-03 6.7466984631097023e-04 0.0000000000000000e+00  3.6685073856263812e-03 -1.0244846897779914e-03 0.0000000000000000e+00  3.6717425484576660e-03 -5.9158610407641281e-04 0.0000000000000000e+00  3.6765099979919431e-03 -1.6705164056608367e-04 0.0000000000000000e+00  3.6776216776467515e-03 2.6673615078897831e-04 0.0000000000000000e+00  3.6744100291261211e-03 7.1125811254532970e-04 0.0000000000000000e+00  2.9881586602730640e-03 -1.0282707809659546e-03 0.0000000000000000e+00  2.9842804518681078e-03 -5.9834794864407047e-04 0.0000000000000000e+00  2.9548248291446336e-03 -2.0165742724046737e-04 0.0000000000000000e+00  2.9741857279875971e-03 2.7298344758611598e-04 0.0000000000000000e+00  2.9761383868432321e-03 7.2143244749827979e-04 0.0000000000000000e+00  </DataArray> 
</PointData> 
</Piece>
</UnstructuredGrid>
</VTKFile>