<?xml version="1.0"?>
<VTKFile type="UnstructuredGrid"  version="0.1"  >
<UnstructuredGrid>
<Piece  NumberOfPoints="135" NumberOfCells="208">
<Points>
<DataArray  type="Float64"  NumberOfComponents="3"  format="ascii">-0.05 0 0  -0.025 0 0  0 0 0  0.02500000000000001 0 0  0.05 0 0  -0.05 0.03846153846153846 0  -0.025 0.03846153846153846 0  0 0.03846153846153846 0  0.02500000000000001 0.03846153846153846 0  0.05 0.03846153846153846 0  -0.05 0.07692307692307693 0  -0.025 0.07692307692307693 0  0 0.07692307692307693 0  0.02500000000000001 0.07692307692307693 0  0.05 0.07692307692307693 0  -0.05 0.1153846153846154 0  -0.025 0.1153846153846154 0  0 0.1153846153846154 0  0.02500000000000001 0.1153846153846154 0  0.05 0.1153846153846154 0  -0.05 0.1538461538461539 0  -0.025 0.1538461538461539 0  0 0.1538461538461539 0  0.02500000000000001 0.1538461538461539 0  0.05 0.1538461538461539 0  -0.05 0.1923076923076923 0  -0.025 0.1923076923076923 0  0 0.1923076923076923 0  0.02500000000000001 0.1923076923076923 0  0.05 0.1923076923076923 0  -0.05 0.2307692307692308 0  -0.025 0.2307692307692308 0  0 0.2307692307692308 0  0.02500000000000001 0.2307692307692308 0  0.05 0.2307692307692308 0  -0.05 0.2692307692307692 0  -0.025 0.2692307692307692 0  0 0.2692307692307692 0  0.02500000000000001 0.2692307692307692 0  0.05 0.2692307692307692 0  -0.05 0.3076923076923077 0  -0.025 0.3076923076923077 0  0 0.3076923076923077 0  0.02500000000000001 0.3076923076923077 0  0.05 0.3076923076923077 0  -0.05 0.3461538461538461 0  -0.025 0.3461538461538461 0  0 0.3461538461538461 0  0.02500000000000001 0.3461538461538461 0  0.05 0.3461538461538461 0  -0.05 0.3846153846153846 0  -0.025 0.3846153846153846 0  0 0.3846153846153846 0  0.02500000000000001 0.3846153846153846 0  0.05 0.3846153846153846 0  -0.05 0.4230769230769231 0  -0.025 0.4230769230769231 0  0 0.4230769230769231 0  0.02500000000000001 0.4230769230769231 0  0.05 0.4230769230769231 0  -0.05 0.4615384615384616 0  -0.025 0.4615384615384616 0  0 0.4615384615384616 0  0.02500000000000001 0.4615384615384616 0  0.05 0.4615384615384616 0  -0.05 0.5 0  -0.025 0.5 0  0 0.5 0  0.02500000000000001 0.5 0  0.05 0.5 0  -0.05 0.5384615384615384 0  -0.025 0.5384615384615384 0  0 0.5384615384615384 0  0.02500000000000001 0.5384615384615384 0  0.05 0.5384615384615384 0  -0.05 0.5769230769230769 0  -0.025 0.5769230769230769 0  0 0.5769230769230769 0  0.02500000000000001 0.5769230769230769 0  0.05 0.5769230769230769 0  -0.05 0.6153846153846154 0  -0.025 0.6153846153846154 0  0 0.6153846153846154 0  0.02500000000000001 0.6153846153846154 0  0.05 0.6153846153846154 0  -0.05 0.6538461538461539 0  -0.025 0.6538461538461539 0  0 0.6538461538461539 0  0.02500000000000001 0.6538461538461539 0  0.05 0.6538461538461539 0  -0.05 0.6923076923076923 0  -0.025 0.6923076923076923 0  0 0.6923076923076923 0  0.02500000000000001 0.6923076923076923 0  0.05 0.6923076923076923 0  -0.05 0.7307692307692307 0  -0.025 0.7307692307692307 0  0 0.7307692307692307 0  0.02500000000000001 0.7307692307692307 0  0.05 0.7307692307692307 0  -0.05 0.7692307692307693 0  -0.025 0.7692307692307693 0  0 0.7692307692307693 0  0.02500000000000001 0.7692307692307693 0  0.05 0.7692307692307693 0  -0.05 0.8076923076923077 0  -0.025 0.8076923076923077 0  0 0.8076923076923077 0  0.02500000000000001 0.8076923076923077 0  0.05 0.8076923076923077 0  -0.05 0.8461538461538461 0  -0.025 0.8461538461538461 0  0 0.8461538461538461 0  0.02500000000000001 0.8461538461538461 0  0.05 0.8461538461538461 0  -0.05 0.8846153846153846 0  -0.025 0.8846153846153846 0  0 0.8846153846153846 0  0.02500000000000001 0.8846153846153846 0  0.05 0.8846153846153846 0  -0.05 0.9230769230769231 0  -0.025 0.9230769230769231 0  0 0.9230769230769231 0  0.02500000000000001 0.9230769230769231 0  0.05 0.9230769230769231 0  -0.05 0.9615384615384616 0  -0.025 0.9615384615384616 0  0 0.9615384615384616 0  0.02500000000000001 0.9615384615384616 0  0.05 0.9615384615384616 0  -0.05 1 0  -0.025 1 0  0 1 0  0.02500000000000001 1 0  0.05 1 0  </DataArray>
</Points>
<Cells>
<DataArray  type="UInt32"  Name="connectivity"  format="ascii">0 1 6  0 5 6  1 2 7  1 6 7  2 3 8  2 7 8  3 4 9  3 8 9  5 6 11  5 10 11  6 7 12  6 11 12  7 8 13  7 12 13  8 9 14  8 13 14  10 11 16  10 15 16  11 12 17  11 16 17  12 13 18  12 17 18  13 14 19  13 18 19  15 16 21  15 20 21  16 17 22  16 21 22  17 18 23  17 22 23  18 19 24  18 23 24  20 21 26  20 25 26  21 22 27  21 26 27  22 23 28  22 27 28  23 24 29  23 28 29  25 26 31  25 30 31  26 27 32  26 31 32  27 28 33  27 32 33  28 29 34  28 33 34  30 31 36  30 35 36  31 32 37  31 36 37  32 33 38  32 37 38  33 34 39  33 38 39  35 36 41  35 40 41  36 37 42  36 41 42  37 38 43  37 42 43  38 39 44  38 43 44  40 41 46  40 45 46  41 42 47  41 46 47  42 43 48  42 47 48  43 44 49  43 48 49  45 46 51  45 50 51  46 47 52  46 51 52  47 48 53  47 52 53  48 49 54  48 53 54  50 51 56  50 55 56  51 52 57  51 56 57  52 53 58  52 57 58  53 54 59  53 58 59  55 56 61  55 60 61  56 57 62  56 61 62  57 58 63  57 62 63  58 59 64  58 63 64  60 61 66  60 65 66  61 62 67  61 66 67  62 63 68  62 67 68  63 64 69  63 68 69  65 66 71  65 70 71  66 67 72  66 71 72  67 68 73  67 72 73  68 69 74  68 73 74  70 71 76  70 75 76  71 72 77  71 76 77  72 73 78  72 77 78  73 74 79  73 78 79  75 76 81  75 80 81  76 77 82  76 81 82  77 78 83  77 82 83  78 79 84  78 83 84  80 81 86  80 85 86  81 82 87  81 86 87  82 83 88  82 87 88  83 84 89  83 88 89  85 86 91  85 90 91  86 87 92  86 91 92  87 88 93  87 92 93  88 89 94  88 93 94  90 91 96  90 95 96  91 92 97  91 96 97  92 93 98  92 97 98  93 94 99  93 98 99  95 96 101  95 100 101  96 97 102  96 101 102  97 98 103  97 102 103  98 99 104  98 103 104  100 101 106  100 105 106  101 102 107  101 106 107  102 103 108  102 107 108  103 104 109  103 108 109  105 106 111  105 110 111  106 107 112  106 111 112  107 108 113  107 112 113  108 109 114  108 113 114  110 111 116  110 115 116  111 112 117  111 116 117  112 113 118  112 117 118  113 114 119  113 118 119  115 116 121  115 120 121  116 117 122  116 121 122  117 118 123  117 122 123  118 119 124  118 123 124  120 121 126  120 125 126  121 122 127  121 126 127  122 123 128  122 127 128  123 124 129  123 128 129  125 126 131  125 130 131  126 127 132  126 131 132  127 128 133  127 132 133  128 129 134  128 133 134  </DataArray>
<DataArray  type="UInt32"  Name="offsets"  format="ascii">3 6 9 12 15 18 21 24 27 30 33 36 39 42 45 48 51 54 57 60 63 66 69 72 75 78 81 84 87 90 93 96 99 102 105 108 111 114 117 120 123 126 129 132 135 138 141 144 147 150 153 156 159 162 165 168 171 174 177 180 183 186 189 192 195 198 201 204 207 210 213 216 219 222 225 228 231 234 237 240 243 246 249 252 255 258 261 264 267 270 273 276 279 282 285 288 291 294 297 300 303 306 309 312 315 318 321 324 327 330 333 336 339 342 345 348 351 354 357 360 363 366 369 372 375 378 381 384 387 390 393 396 399 402 405 408 411 414 417 420 423 426 429 432 435 438 441 444 447 450 453 456 459 462 465 468 471 474 477 480 483 486 489 492 495 498 501 504 507 510 513 516 519 522 525 528 531 534 537 540 543 546 549 552 555 558 561 564 567 570 573 576 579 582 585 588 591 594 597 600 603 606 609 612 615 618 621 624 </DataArray>
<DataArray  type="UInt8"  Name="types"  format="ascii">5 5 5 5 5 5 5 5 5 5 5 5 5 5 5 5 5 5 5 5 5 5 5 5 5 5 5 5 5 5 5 5 5 5 5 5 5 5 5 5 5 5 5 5 5 5 5 5 5 5 5 5 5 5 5 5 5 5 5 5 5 5 5 5 5 5 5 5 5 5 5 5 5 5 5 5 5 5 5 5 5 5 5 5 5 5 5 5 5 5 5 5 5 5 5 5 5 5 5 5 5 5 5 5 5 5 5 5 5 5 5 5 5 5 5 5 5 5 5 5 5 5 5 5 5 5 5 5 5 5 5 5 5 5 5 5 5 5 5 5 5 5 5 5 5 5 5 5 5 5 5 5 5 5 5 5 5 5 5 5 5 5 5 5 5 5 5 5 5 5 5 5 5 5 5 5 5 5 5 5 5 5 5 5 5 5 5 5 5 5 5 5 5 5 5 5 5 5 5 5 5 5 5 5 5 5 5 5 </DataArray>
</Cells>
<PointData  Vectors="Displacement"> 
<DataArray  type="Float64"  Name="Displacement"  NumberOfComponents="3" format="ascii">-4.6883912554664166e-16 1.7852679758654588e-18 0.0000000000000000e+00  0.0000000000000000e+00 0.0000000000000000e+00 0.0000000000000000e+00  0.0000000000000000e+00 0.0000000000000000e+00 0.0000000000000000e+00  -5.8461225359265197e-17 1.0868061601059398e-18 0.0000000000000000e+00  1.7538367607779559e-16 -3.2604184803178193e-18 0.0000000000000000e+00  4.3893836035711161e-05 5.8482179931340755e-05 0.0000000000000000e+00  3.0628818240184774e-05 2.4895339295939094e-05 0.0000000000000000e+00  2.6866184959508660e-05 -4.3711342873206493e-06 0.0000000000000000e+00  3.2389497699834644e-05 -3.4498115928466995e-05 0.0000000000000000e+00  4.8320471498193338e-05 -7.0763364238133415e-05 0.0000000000000000e+00  1.2549363991398333e-04 1.1104785550921532e-04 0.0000000000000000e+00  1.1563462539087462e-04 4.6518418142379971e-05 0.0000000000000000e+00  1.1435477982221670e-04 -1.0083160466267862e-05 0.0000000000000000e+00  1.1971263145573589e-04 -6.7985892930442078e-05 0.0000000000000000e+00  1.3232350864988442e-04 -1.3348443191878805e-04 0.0000000000000000e+00  2.5722397023219548e-04 1.4932905415674232e-04 0.0000000000000000e+00  2.5110883971346304e-04 6.0724659785545985e-05 0.0000000000000000e+00  2.5058496970547205e-04 -1.6331705985037266e-05 0.0000000000000000e+00  2.5460527863708138e-04 -9.4266417929734272e-05 0.0000000000000000e+00  2.6436640276264413e-04 -1.8281594279763533e-04 0.0000000000000000e+00  4.2030429932234640e-04 1.6503992258243492e-04 0.0000000000000000e+00  4.1871228297060865e-04 6.4811608046154239e-05 0.0000000000000000e+00  4.2003464972227984e-04 -2.1801256519749988e-05 0.0000000000000000e+00  4.2274121545231254e-04 -1.0911938842832107e-04 0.0000000000000000e+00  4.2677926717349851e-04 -2.0967294508010016e-04 0.0000000000000000e+00  5.8962777133956406e-04 1.5405463352561496e-04 0.0000000000000000e+00  5.9447459468275204e-04 5.6018139575231918e-05 0.0000000000000000e+00  5.9746024649218773e-04 -2.7856568503529573e-05 0.0000000000000000e+00  5.9857685253598037e-04 -1.1207676863027423e-04 0.0000000000000000e+00  5.9779325480067557e-04 -2.0947375375627076e-04 0.0000000000000000e+00  7.4695284545644872e-04 1.1459044733538118e-04 0.0000000000000000e+00  7.5621674527359510e-04 3.3700254281559817e-05 0.0000000000000000e+00  7.6063935055868030e-04 -3.4039644937009631e-05 0.0000000000000000e+00  7.5951125228678688e-04 -1.0204787202145631e-04 0.0000000000000000e+00  7.5284108848837317e-04 -1.8233676674890814e-04 0.0000000000000000e+00  8.6168958653498975e-04 4.8053387337907044e-05 0.0000000000000000e+00  8.7707772341902442e-04 -1.2684470510157952e-06 0.0000000000000000e+00  8.8323351583999103e-04 -4.0029972110846544e-05 0.0000000000000000e+00  8.8084607596364186e-04 -7.9733709598182924e-05 0.0000000000000000e+00  8.6961806931702039e-04 -1.3016470762195704e-04 0.0000000000000000e+00  9.1803376448805084e-04 -3.9913008178433214e-05 0.0000000000000000e+00  9.3657326467578249e-04 -4.7819022375086881e-05 0.0000000000000000e+00  9.4503314845229838e-04 -4.7994902695668176e-05 0.0000000000000000e+00  9.4270723624010168e-04 -4.8868916416752014e-05 0.0000000000000000e+00  9.2854052810686862e-04 -5.7337293271187259e-05 0.0000000000000000e+00  9.0057562985282010e-04 -1.4242537113844363e-04 0.0000000000000000e+00  9.2187367093387533e-04 -1.0223824454697442e-04 0.0000000000000000e+00  9.3106985068913781e-04 -5.6824791752219658e-05 0.0000000000000000e+00  9.2771397985594577e-04 -1.1679177723841519e-05 0.0000000000000000e+00  9.1080275183144611e-04 2.9231407835766496e-05 0.0000000000000000e+00  8.0213873968786064e-04 -2.5394845516098956e-04 0.0000000000000000e+00  8.2499437908209472e-04 -1.6121600081655336e-04 0.0000000000000000e+00  8.3459514399004725e-04 -6.5765217375201584e-05 0.0000000000000000e+00  8.3091797530685061e-04 2.9537099551514176e-05 0.0000000000000000e+00  8.1331013250374715e-04 1.2272004121332132e-04 0.0000000000000000e+00  6.1913098523986622e-04 -3.6988909687468360e-04 0.0000000000000000e+00  6.4172971705819858e-04 -2.2274752230961358e-04 0.0000000000000000e+00  6.5165736825492594e-04 -7.4996396555133374e-05 0.0000000000000000e+00  6.4780906944002855e-04 7.2855075188259000e-05 0.0000000000000000e+00  6.2907644407489665e-04 2.2142532540697827e-04 0.0000000000000000e+00  3.4701276109628333e-04 -4.8563089186945017e-04 0.0000000000000000e+00  3.6974850979400501e-04 -2.8340763847439115e-04 0.0000000000000000e+00  3.7867090263654792e-04 -8.3394914997191995e-05 0.0000000000000000e+00  3.7431868617710678e-04 1.1654373175076939e-04 0.0000000000000000e+00  3.5619817733393758e-04 3.1997068377137057e-04 0.0000000000000000e+00  -9.5234024488366006e-06 -5.9534754309330240e-04 0.0000000000000000e+00  1.0182167959448717e-05 -3.4101399222977250e-04 0.0000000000000000e+00  1.8957931738832211e-05 -9.1379710819569242e-05 0.0000000000000000e+00  1.5427232409470219e-05 1.5810192624542051e-04 0.0000000000000000e+00  -1.1560389667194316e-06 4.1290547440914167e-04 0.0000000000000000e+00  -4.4652611707970459e-04 -6.9365638931971185e-04 0.0000000000000000e+00  -4.2818002140005378e-04 -3.9361424434108537e-04 0.0000000000000000e+00  -4.2025861213675086e-04 -9.9582857225969011e-05 0.0000000000000000e+00  -4.2308703684374132e-04 1.9427060597609813e-04 0.0000000000000000e+00  -4.3717075305804845e-04 4.9520469771799488e-04 0.0000000000000000e+00  -9.4744609215991729e-04 -7.7822665117235272e-04 0.0000000000000000e+00  -9.3300486837771639e-04 -4.3948471083410324e-04 0.0000000000000000e+00  -9.2624325854859767e-04 -1.0785021266433430e-04 0.0000000000000000e+00  -9.2796062594825311e-04 2.2352187717650406e-04 0.0000000000000000e+00  -9.3864030915444393e-04 5.6302576146059085e-04 0.0000000000000000e+00  -1.5049713862988826e-03 -8.4690993972789713e-04 0.0000000000000000e+00  -1.4938227073102244e-03 -4.7729559897015286e-04 0.0000000000000000e+00  -1.4879246982099669e-03 -1.1570394868990665e-04 0.0000000000000000e+00  -1.4887693075303402e-03 2.4549921268988918e-04 0.0000000000000000e+00  -1.4967665933675826e-03 6.1583612146672278e-04 0.0000000000000000e+00  -2.1021802397668430e-03 -8.9705233594524424e-04 0.0000000000000000e+00  -2.0940017820194716e-03 -5.0682762729563227e-04 0.0000000000000000e+00  -2.0891532513321394e-03 -1.2354768324729536e-04 0.0000000000000000e+00  -2.0888325359461903e-03 2.5980233102681366e-04 0.0000000000000000e+00  -2.0931331951782517e-03 6.5131266658950454e-04 0.0000000000000000e+00  -2.7221212706407499e-03 -9.3127678876194148e-04 0.0000000000000000e+00  -2.7181078374564674e-03 -5.2856826282526425e-04 0.0000000000000000e+00  -2.7146468469345293e-03 -1.3117780162194770e-04 0.0000000000000000e+00  -2.7139098657021805e-03 2.6666315404338893e-04 0.0000000000000000e+00  -2.7155533856050057e-03 6.7169285286319456e-04 0.0000000000000000e+00  -3.3562159861834167e-03 -9.5135833398189490e-04 0.0000000000000000e+00  -3.3534208157733705e-03 -5.4316466684017613e-04 0.0000000000000000e+00  -3.3508735773255028e-03 -1.3820873792156149e-04 0.0000000000000000e+00  -3.3495085168031191e-03 2.6714507219489545e-04 0.0000000000000000e+00  -3.3485888095694436e-03 6.7636257494153862e-04 0.0000000000000000e+00  -3.9882135420920423e-03 -9.6208708969179504e-04 0.0000000000000000e+00  -3.9878895477760733e-03 -5.5375910959328195e-04 0.0000000000000000e+00  -3.9855915834617790e-03 -1.4606514664065580e-04 0.0000000000000000e+00  -3.9831810587530516e-03 2.6269922439509563e-04 0.0000000000000000e+00  -3.9805091364070498e-03 6.7347455222756529e-04 0.0000000000000000e+00  -4.6218885768833165e-03 -9.7189576569564607e-04 0.0000000000000000e+00  -4.6201355721570032e-03 -5.6246305195039301e-04 0.0000000000000000e+00  -4.6178346717809411e-03 -1.5303714228565832e-04 0.0000000000000000e+00  -4.6157831579926346e-03 2.5661995476759629e-04 0.0000000000000000e+00  -4.6131408692258822e-03 6.6690709313085709e-04 0.0000000000000000e+00  -5.2498010726609225e-03 -9.7998714493026840e-04 0.0000000000000000e+00  -5.2487176357984763e-03 -5.7181899522647337e-04 0.0000000000000000e+00  -5.2458967027023970e-03 -1.6039969475761256e-04 0.0000000000000000e+00  -5.2431116882135816e-03 2.5055280112528522e-04 0.0000000000000000e+00  -5.2401240472755945e-03 6.5961527973528355e-04 0.0000000000000000e+00  -5.8790867300306058e-03 -9.9381666380568600e-04 0.0000000000000000e+00  -5.8766218728078783e-03 -5.8311342957383040e-04 0.0000000000000000e+00  -5.8729675773868343e-03 -1.6956886968762637e-04 0.0000000000000000e+00  -5.8698892176830240e-03 2.4480374768337835e-04 0.0000000000000000e+00  -5.8676312907012963e-03 6.5823058378387085e-04 0.0000000000000000e+00  -6.5165526344208120e-03 -1.0128435264369197e-03 0.0000000000000000e+00  -6.5136435392565252e-03 -5.9643127095131631e-04 0.0000000000000000e+00  -6.5103933700900009e-03 -1.7855656146633931e-04 0.0000000000000000e+00  -6.5072031208049594e-03 2.4139939812025334e-04 0.0000000000000000e+00  -6.5057634429045224e-03 6.6131572382313456e-04 0.0000000000000000e+00  -7.1684247043051971e-03 -1.0294720332813961e-03 0.0000000000000000e+00  -7.1677765582767719e-03 -6.0984462491679898e-04 0.0000000000000000e+00  -7.1631736838400385e-03 -1.9068060073678777e-04 0.0000000000000000e+00  -7.1587304849124352e-03 2.3817908184695289e-04 0.0000000000000000e+00  -7.1572990710238706e-03 6.7029074662083399e-04 0.0000000000000000e+00  -7.8234851466061992e-03 -1.0300890170062643e-03 0.0000000000000000e+00  -7.8280241730359894e-03 -6.1403245700249231e-04 0.0000000000000000e+00  -7.8579411153415057e-03 -2.2741858176392665e-04 0.0000000000000000e+00  -7.8365168457245997e-03 2.3838146330145131e-04 0.0000000000000000e+00  -7.8330164525307749e-03 6.7644480918786461e-04 0.0000000000000000e+00  </DataArray> 
</PointData> 
</Piece>
</UnstructuredGrid>
</VTKFile>