<?xml version="1.0"?>
<VTKFile type="UnstructuredGrid"  version="0.1"  >
<UnstructuredGrid>
<Piece  NumberOfPoints="135" NumberOfCells="208">
<Points>
<DataArray  type="Float64"  NumberOfComponents="3"  format="ascii">-0.05 0 0  -0.025 0 0  0 0 0  0.02500000000000001 0 0  0.05 0 0  -0.05 0.03846153846153846 0  -0.025 0.03846153846153846 0  0 0.03846153846153846 0  0.02500000000000001 0.03846153846153846 0  0.05 0.03846153846153846 0  -0.05 0.07692307692307693 0  -0.025 0.07692307692307693 0  0 0.07692307692307693 0  0.02500000000000001 0.07692307692307693 0  0.05 0.07692307692307693 0  -0.05 0.1153846153846154 0  -0.025 0.1153846153846154 0  0 0.1153846153846154 0  0.02500000000000001 0.1153846153846154 0  0.05 0.1153846153846154 0  -0.05 0.1538461538461539 0  -0.025 0.1538461538461539 0  0 0.1538461538461539 0  0.02500000000000001 0.1538461538461539 0  0.05 0.1538461538461539 0  -0.05 0.1923076923076923 0  -0.025 0.1923076923076923 0  0 0.1923076923076923 0  0.02500000000000001 0.1923076923076923 0  0.05 0.1923076923076923 0  -0.05 0.2307692307692308 0  -0.025 0.2307692307692308 0  0 0.2307692307692308 0  0.02500000000000001 0.2307692307692308 0  0.05 0.2307692307692308 0  -0.05 0.2692307692307692 0  -0.025 0.2692307692307692 0  0 0.2692307692307692 0  0.02500000000000001 0.2692307692307692 0  0.05 0.2692307692307692 0  -0.05 0.3076923076923077 0  -0.025 0.3076923076923077 0  0 0.3076923076923077 0  0.02500000000000001 0.3076923076923077 0  0.05 0.3076923076923077 0  -0.05 0.3461538461538461 0  -0.025 0.3461538461538461 0  0 0.3461538461538461 0  0.02500000000000001 0.3461538461538461 0  0.05 0.3461538461538461 0  -0.05 0.3846153846153846 0  -0.025 0.3846153846153846 0  0 0.3846153846153846 0  0.02500000000000001 0.3846153846153846 0  0.05 0.3846153846153846 0  -0.05 0.4230769230769231 0  -0.025 0.4230769230769231 0  0 0.4230769230769231 0  0.02500000000000001 0.4230769230769231 0  0.05 0.4230769230769231 0  -0.05 0.4615384615384616 0  -0.025 0.4615384615384616 0  0 0.4615384615384616 0  0.02500000000000001 0.4615384615384616 0  0.05 0.4615384615384616 0  -0.05 0.5 0  -0.025 0.5 0  0 0.5 0  0.02500000000000001 0.5 0  0.05 0.5 0  -0.05 0.5384615384615384 0  -0.025 0.5384615384615384 0  0 0.5384615384615384 0  0.02500000000000001 0.5384615384615384 0  0.05 0.5384615384615384 0  -0.05 0.5769230769230769 0  -0.025 0.5769230769230769 0  0 0.5769230769230769 0  0.02500000000000001 0.5769230769230769 0  0.05 0.5769230769230769 0  -0.05 0.6153846153846154 0  -0.025 0.6153846153846154 0  0 0.6153846153846154 0  0.02500000000000001 0.6153846153846154 0  0.05 0.6153846153846154 0  -0.05 0.6538461538461539 0  -0.025 0.6538461538461539 0  0 0.6538461538461539 0  0.02500000000000001 0.6538461538461539 0  0.05 0.6538461538461539 0  -0.05 0.6923076923076923 0  -0.025 0.6923076923076923 0  0 0.6923076923076923 0  0.02500000000000001 0.6923076923076923 0  0.05 0.6923076923076923 0  -0.05 0.7307692307692307 0  -0.025 0.7307692307692307 0  0 0.7307692307692307 0  0.02500000000000001 0.7307692307692307 0  0.05 0.7307692307692307 0  -0.05 0.7692307692307693 0  -0.025 0.7692307692307693 0  0 0.7692307692307693 0  0.02500000000000001 0.7692307692307693 0  0.05 0.7692307692307693 0  -0.05 0.8076923076923077 0  -0.025 0.8076923076923077 0  0 0.8076923076923077 0  0.02500000000000001 0.8076923076923077 0  0.05 0.8076923076923077 0  -0.05 0.8461538461538461 0  -0.025 0.8461538461538461 0  0 0.8461538461538461 0  0.02500000000000001 0.8461538461538461 0  0.05 0.8461538461538461 0  -0.05 0.8846153846153846 0  -0.025 0.8846153846153846 0  0 0.8846153846153846 0  0.02500000000000001 0.8846153846153846 0  0.05 0.8846153846153846 0  -0.05 0.9230769230769231 0  -0.025 0.9230769230769231 0  0 0.9230769230769231 0  0.02500000000000001 0.9230769230769231 0  0.05 0.9230769230769231 0  -0.05 0.9615384615384616 0  -0.025 0.9615384615384616 0  0 0.9615384615384616 0  0.02500000000000001 0.9615384615384616 0  0.05 0.9615384615384616 0  -0.05 1 0  -0.025 1 0  0 1 0  0.02500000000000001 1 0  0.05 1 0  </DataArray>
</Points>
<Cells>
<DataArray  type="UInt32"  Name="connectivity"  format="ascii">0 1 6  0 5 6  1 2 7  1 6 7  2 3 8  2 7 8  3 4 9  3 8 9  5 6 11  5 10 11  6 7 12  6 11 12  7 8 13  7 12 13  8 9 14  8 13 14  10 11 16  10 15 16  11 12 17  11 16 17  12 13 18  12 17 18  13 14 19  13 18 19  15 16 21  15 20 21  16 17 22  16 21 22  17 18 23  17 22 23  18 19 24  18 23 24  20 21 26  20 25 26  21 22 27  21 26 27  22 23 28  22 27 28  23 24 29  23 28 29  25 26 31  25 30 31  26 27 32  26 31 32  27 28 33  27 32 33  28 29 34  28 33 34  30 31 36  30 35 36  31 32 37  31 36 37  32 33 38  32 37 38  33 34 39  33 38 39  35 36 41  35 40 41  36 37 42  36 41 42  37 38 43  37 42 43  38 39 44  38 43 44  40 41 46  40 45 46  41 42 47  41 46 47  42 43 48  42 47 48  43 44 49  43 48 49  45 46 51  45 50 51  46 47 52  46 51 52  47 48 53  47 52 53  48 49 54  48 53 54  50 51 56  50 55 56  51 52 57  51 56 57  52 53 58  52 57 58  53 54 59  53 58 59  55 56 61  55 60 61  56 57 62  56 61 62  57 58 63  57 62 63  58 59 64  58 63 64  60 61 66  60 65 66  61 62 67  61 66 67  62 63 68  62 67 68  63 64 69  63 68 69  65 66 71  65 70 71  66 67 72  66 71 72  67 68 73  67 72 73  68 69 74  68 73 74  70 71 76  70 75 76  71 72 77  71 76 77  72 73 78  72 77 78  73 74 79  73 78 79  75 76 81  75 80 81  76 77 82  76 81 82  77 78 83  77 82 83  78 79 84  78 83 84  80 81 86  80 85 86  81 82 87  81 86 87  82 83 88  82 87 88  83 84 89  83 88 89  85 86 91  85 90 91  86 87 92  86 91 92  87 88 93  87 92 93  88 89 94  88 93 94  90 91 96  90 95 96  91 92 97  91 96 97  92 93 98  92 97 98  93 94 99  93 98 99  95 96 101  95 100 101  96 97 102  96 101 102  97 98 103  97 102 103  98 99 104  98 103 104  100 101 106  100 105 106  101 102 107  101 106 107  102 103 108  102 107 108  103 104 109  103 108 109  105 106 111  105 110 111  106 107 112  106 111 112  107 108 113  107 112 113  108 109 114  108 113 114  110 111 116  110 115 116  111 112 117  111 116 117  112 113 118  112 117 118  113 114 119  113 118 119  115 116 121  115 120 121  116 117 122  116 121 122  117 118 123  117 122 123  118 119 124  118 123 124  120 121 126  120 125 126  121 122 127  121 126 127  122 123 128  122 127 128  123 124 129  123 128 129  125 126 131  125 130 131  126 127 132  126 131 132  127 128 133  127 132 133  128 129 134  128 133 134  </DataArray>
<DataArray  type="UInt32"  Name="offsets"  format="ascii">3 6 9 12 15 18 21 24 27 30 33 36 39 42 45 48 51 54 57 60 63 66 69 72 75 78 81 84 87 90 93 96 99 102 105 108 111 114 117 120 123 126 129 132 135 138 141 144 147 150 153 156 159 162 165 168 171 174 177 180 183 186 189 192 195 198 201 204 207 210 213 216 219 222 225 228 231 234 237 240 243 246 249 252 255 258 261 264 267 270 273 276 279 282 285 288 291 294 297 300 303 306 309 312 315 318 321 324 327 330 333 336 339 342 345 348 351 354 357 360 363 366 369 372 375 378 381 384 387 390 393 396 399 402 405 408 411 414 417 420 423 426 429 432 435 438 441 444 447 450 453 456 459 462 465 468 471 474 477 480 483 486 489 492 495 498 501 504 507 510 513 516 519 522 525 528 531 534 537 540 543 546 549 552 555 558 561 564 567 570 573 576 579 582 585 588 591 594 597 600 603 606 609 612 615 618 621 624 </DataArray>
<DataArray  type="UInt8"  Name="types"  format="ascii">5 5 5 5 5 5 5 5 5 5 5 5 5 5 5 5 5 5 5 5 5 5 5 5 5 5 5 5 5 5 5 5 5 5 5 5 5 5 5 5 5 5 5 5 5 5 5 5 5 5 5 5 5 5 5 5 5 5 5 5 5 5 5 5 5 5 5 5 5 5 5 5 5 5 5 5 5 5 5 5 5 5 5 5 5 5 5 5 5 5 5 5 5 5 5 5 5 5 5 5 5 5 5 5 5 5 5 5 5 5 5 5 5 5 5 5 5 5 5 5 5 5 5 5 5 5 5 5 5 5 5 5 5 5 5 5 5 5 5 5 5 5 5 5 5 5 5 5 5 5 5 5 5 5 5 5 5 5 5 5 5 5 5 5 5 5 5 5 5 5 5 5 5 5 5 5 5 5 5 5 5 5 5 5 5 5 5 5 5 5 5 5 5 5 5 5 5 5 5 5 5 5 5 5 5 5 5 5 </DataArray>
</Cells>
<PointData  Vectors="Displacement"> 
<DataArray  type="Float64"  Name="Displacement"  NumberOfComponents="3" format="ascii">-4.4237639421274463e-16 5.0579570890637472e-18 0.0000000000000000e+00  0.0000000000000000e+00 0.0000000000000000e+00 0.0000000000000000e+00  0.0000000000000000e+00 0.0000000000000000e+00 0.0000000000000000e+00  -6.7445402814322718e-17 1.3801809960861545e-18 0.0000000000000000e+00  2.0233620844296818e-16 -4.1405429882584636e-18 0.0000000000000000e+00  3.5721070862372540e-04 4.9231091519430590e-04 0.0000000000000000e+00  2.5840079168325410e-04 2.2678986538337656e-04 0.0000000000000000e+00  2.2326086574747054e-04 -3.4077953690665715e-06 0.0000000000000000e+00  2.5594459714997126e-04 -2.3098803283023010e-04 0.0000000000000000e+00  3.6001659896241217e-04 -5.0355638749155517e-04 0.0000000000000000e+00  9.6807501566833804e-04 9.2788385552122028e-04 0.0000000000000000e+00  8.8127783671430589e-04 4.4609268026605197e-04 0.0000000000000000e+00  8.5319525483221323e-04 -7.2989042600895232e-06 0.0000000000000000e+00  8.8435730876527778e-04 -4.6106208752257527e-04 0.0000000000000000e+00  9.7357307021327295e-04 -9.4296015368356561e-04 0.0000000000000000e+00  1.8961196351489978e-03 1.3138513687686716e-03 0.0000000000000000e+00  1.8201866756413084e-03 6.3797639176493782e-04 0.0000000000000000e+00  1.7959375148566346e-03 -1.0616145122419064e-05 0.0000000000000000e+00  1.8225205059695256e-03 -6.5903531898068148e-04 0.0000000000000000e+00  1.9003217882003242e-03 -1.3343172733838696e-03 0.0000000000000000e+00  3.1013181207303229e-03 1.6494604457110210e-03 0.0000000000000000e+00  3.0356146592128656e-03 8.0531111926874100e-04 0.0000000000000000e+00  3.0146365320584080e-03 -1.2997783998995276e-05 0.0000000000000000e+00  3.0377846877737537e-03 -8.3101346250802365e-04 0.0000000000000000e+00  3.1052111633603041e-03 -1.6746001462430709e-03 0.0000000000000000e+00  4.5445921446820112e-03 1.9360521845401578e-03 0.0000000000000000e+00  4.4898063674524858e-03 9.4743992249358055e-04 0.0000000000000000e+00  4.4724900031896412e-03 -1.4810252560486355e-05 0.0000000000000000e+00  4.4915549197197101e-03 -9.7714461425630434e-04 0.0000000000000000e+00  4.5479617747190360e-03 -1.9649155068062986e-03 0.0000000000000000e+00  6.1949737752548979e-03 2.1740534838270466e-03 0.0000000000000000e+00  6.1495164599648811e-03 1.0657540770337773e-03 0.0000000000000000e+00  6.1349291123969666e-03 -1.6224483567120814e-05 0.0000000000000000e+00  6.1505569209465115e-03 -1.0979887009950160e-03 0.0000000000000000e+00  6.1971159631461379e-03 -2.2063582791549759e-03 0.0000000000000000e+00  8.0055736344726257e-03 2.3598441998082965e-03 0.0000000000000000e+00  7.9720068308720936e-03 1.1583119834238141e-03 0.0000000000000000e+00  7.9616947244086720e-03 -1.7549242298424211e-05 0.0000000000000000e+00  7.9741871283327530e-03 -1.1940183457158622e-03 0.0000000000000000e+00  8.0097367552012366e-03 -2.3959027368235970e-03 0.0000000000000000e+00  9.9415148648497320e-03 2.4957390856739357e-03 0.0000000000000000e+00  9.9168708998392564e-03 1.2260732709369513e-03 0.0000000000000000e+00  9.9095565783393746e-03 -1.9919512555814039e-05 0.0000000000000000e+00  9.9190511678630914e-03 -1.2658262379218969e-03 0.0000000000000000e+00  9.9453493283907617e-03 -2.5355233303897963e-03 0.0000000000000000e+00  1.1958467947218356e-02 2.5850955494990872e-03 0.0000000000000000e+00  1.1943456384691501e-02 1.2710680493459227e-03 0.0000000000000000e+00  1.1939351481317008e-02 -2.2335451965441793e-05 0.0000000000000000e+00  1.1946183730570686e-02 -1.3159424507379288e-03 0.0000000000000000e+00  1.1963322211879299e-02 -2.6298452177061196e-03 0.0000000000000000e+00  1.4023246717967591e-02 2.6337093058309449e-03 0.0000000000000000e+00  1.4015357043283013e-02 1.2959067692142534e-03 0.0000000000000000e+00  1.4013729775725858e-02 -2.5258610416148845e-05 0.0000000000000000e+00  1.4017919133329417e-02 -1.3463202084623600e-03 0.0000000000000000e+00  1.4027518193647932e-02 -2.6833816885551806e-03 0.0000000000000000e+00  1.6108810341688193e-02 2.6530808426020545e-03 0.0000000000000000e+00  1.6106176328036112e-02 1.3056839563975620e-03 0.0000000000000000e+00  1.6106180626622005e-02 -2.7850000949063652e-05 0.0000000000000000e+00  1.6108153133719185e-02 -1.3611308085075080e-03 0.0000000000000000e+00  1.6112103748010639e-02 -2.7080215059314978e-03 0.0000000000000000e+00  1.8196635292434569e-02 2.6466790709666461e-03 0.0000000000000000e+00  1.8200443162938517e-02 1.3012706037702328e-03 0.0000000000000000e+00  1.8202847059815345e-02 -3.0280072678709918e-05 0.0000000000000000e+00  1.8202748654131389e-02 -1.3621418328473264e-03 0.0000000000000000e+00  1.8200734786001382e-02 -2.7072669047710461e-03 0.0000000000000000e+00  2.0275517990508963e-02 2.6154494753004012e-03 0.0000000000000000e+00  2.0283621360577913e-02 1.2841901572087295e-03 0.0000000000000000e+00  2.0287396894022838e-02 -3.3229193081096010e-05 0.0000000000000000e+00  2.0285664980213457e-02 -1.3505432404583785e-03 0.0000000000000000e+00  2.0279104332988986e-02 -2.6819439082674265e-03 0.0000000000000000e+00  2.2319796795583571e-02 2.5562345215160939e-03 0.0000000000000000e+00  2.2335487848862377e-02 1.2523668714563244e-03 0.0000000000000000e+00  2.2342223215025957e-02 -3.6646065195744305e-05 0.0000000000000000e+00  2.2338944574533341e-02 -1.3262786389169449e-03 0.0000000000000000e+00  2.2326178232859983e-02 -2.6306936063609822e-03 0.0000000000000000e+00  2.4314612090501078e-02 2.4663024588200523e-03 0.0000000000000000e+00  2.4335861040453863e-02 1.2049091605525340e-03 0.0000000000000000e+00  2.4344554802917130e-02 -4.1676161174551053e-05 0.0000000000000000e+00  2.4339710425539198e-02 -1.2882458199706193e-03 0.0000000000000000e+00  2.4321542398532740e-02 -2.5495973068097345e-03 0.0000000000000000e+00  2.6227953299057357e-02 2.3449084492584748e-03 0.0000000000000000e+00  2.6255623970293122e-02 1.1424650222201127e-03 0.0000000000000000e+00  2.6266429535562661e-02 -4.7310866916147442e-05 0.0000000000000000e+00  2.6260173468514877e-02 -1.2372009144811721e-03 0.0000000000000000e+00  2.6236293075875057e-02 -2.4393876546725760e-03 0.0000000000000000e+00  2.8035340504186285e-02 2.1953997454017275e-03 0.0000000000000000e+00  2.8067807852718840e-02 1.0663611405390546e-03 0.0000000000000000e+00  2.8080260178374880e-02 -5.3827531987733587e-05 0.0000000000000000e+00  2.8072473460419876e-02 -1.1739583116316447e-03 0.0000000000000000e+00  2.8043800332237152e-02 -2.3021041855219408e-03 0.0000000000000000e+00  2.9717537916829247e-02 2.0283893560785419e-03 0.0000000000000000e+00  2.9751800249904422e-02 9.8195024392449095e-04 0.0000000000000000e+00  2.9764572721009498e-02 -6.0372856855299981e-05 0.0000000000000000e+00  2.9755897447270429e-02 -1.1024983816009591e-03 0.0000000000000000e+00  2.9725026893346367e-02 -2.1480431067243638e-03 0.0000000000000000e+00  3.1260074152238554e-02 1.8515980311412485e-03 0.0000000000000000e+00  3.1296417933124987e-02 8.9250724628332041e-04 0.0000000000000000e+00  3.1310192114621924e-02 -6.6901038247496670e-05 0.0000000000000000e+00  3.1301212468113716e-02 -1.0266870388655821e-03 0.0000000000000000e+00  3.1268678465883874e-02 -1.9854899305458869e-03 0.0000000000000000e+00  3.2665942993300251e-02 1.6761071179174024e-03 0.0000000000000000e+00  3.2699819904025214e-02 8.0343072765329162e-04 0.0000000000000000e+00  3.2712864075953578e-02 -7.4106684175407448e-05 0.0000000000000000e+00  3.2704610796057132e-02 -9.5140526167748242e-04 0.0000000000000000e+00  3.2674122747646445e-02 -1.8231737914590205e-03 0.0000000000000000e+00  3.3932011109336080e-02 1.5096579789156440e-03 0.0000000000000000e+00  3.3963955070119373e-02 7.1885501213248676e-04 0.0000000000000000e+00  3.3976512684439235e-02 -8.1538497817222833e-05 0.0000000000000000e+00  3.3969490353136990e-02 -8.8194286173285893e-04 0.0000000000000000e+00  3.3941549373786205e-02 -1.6715910825983334e-03 0.0000000000000000e+00  3.5076036965242925e-02 1.3633897094661306e-03 0.0000000000000000e+00  3.5101700957029684e-02 6.4428617076271982e-04 0.0000000000000000e+00  3.5111729480350760e-02 -8.9045330915654293e-05 0.0000000000000000e+00  3.5105762078048955e-02 -8.2244284402275256e-04 0.0000000000000000e+00  3.5083332219166104e-02 -1.5400170017793361e-03 0.0000000000000000e+00  3.6115119600763683e-02 1.2489701373560160e-03 0.0000000000000000e+00  3.6133584651580994e-02 5.8532261953902012e-04 0.0000000000000000e+00  3.6141893441118129e-02 -9.5464003582093409e-05 0.0000000000000000e+00  3.6138508521551066e-02 -7.7717638686496517e-04 0.0000000000000000e+00  3.6122986176983611e-02 -1.4409449617492031e-03 0.0000000000000000e+00  3.7082721131189232e-02 1.1725388337345854e-03 0.0000000000000000e+00  3.7094589861164456e-02 5.4218882664282188e-04 0.0000000000000000e+00  3.7102214586454602e-02 -1.0351054195786771e-04 0.0000000000000000e+00  3.7101420011970261e-02 -7.4838520371717254e-04 0.0000000000000000e+00  3.7092110846451760e-02 -1.3762324623018936e-03 0.0000000000000000e+00  3.8018602174070444e-02 1.1356343261884523e-03 0.0000000000000000e+00  3.8022071585281980e-02 5.1511721207620376e-04 0.0000000000000000e+00  3.8027820567444921e-02 -1.1505683765513862e-04 0.0000000000000000e+00  3.8030188993988343e-02 -7.3503591593862799e-04 0.0000000000000000e+00  3.8028048099558107e-02 -1.3445119590923679e-03 0.0000000000000000e+00  3.8958482586583347e-02 1.1333498089714817e-03 0.0000000000000000e+00  3.8955831511186527e-02 5.0828044316309471e-04 0.0000000000000000e+00  3.8927184248955957e-02 -1.5044067879653811e-04 0.0000000000000000e+00  3.8947760019157701e-02 -7.3128510809394908e-04 0.0000000000000000e+00  3.8950223864912328e-02 -1.3368358438083268e-03 0.0000000000000000e+00  </DataArray> 
</PointData> 
</Piece>
</UnstructuredGrid>
</VTKFile>