<?xml version="1.0"?>
<VTKFile type="UnstructuredGrid"  version="0.1"  >
<UnstructuredGrid>
<Piece  NumberOfPoints="135" NumberOfCells="208">
<Points>
<DataArray  type="Float64"  NumberOfComponents="3"  format="ascii">-0.05 0 0  -0.025 0 0  0 0 0  0.02500000000000001 0 0  0.05 0 0  -0.05 0.03846153846153846 0  -0.025 0.03846153846153846 0  0 0.03846153846153846 0  0.02500000000000001 0.03846153846153846 0  0.05 0.03846153846153846 0  -0.05 0.07692307692307693 0  -0.025 0.07692307692307693 0  0 0.07692307692307693 0  0.02500000000000001 0.07692307692307693 0  0.05 0.07692307692307693 0  -0.05 0.1153846153846154 0  -0.025 0.1153846153846154 0  0 0.1153846153846154 0  0.02500000000000001 0.1153846153846154 0  0.05 0.1153846153846154 0  -0.05 0.1538461538461539 0  -0.025 0.1538461538461539 0  0 0.1538461538461539 0  0.02500000000000001 0.1538461538461539 0  0.05 0.1538461538461539 0  -0.05 0.1923076923076923 0  -0.025 0.1923076923076923 0  0 0.1923076923076923 0  0.02500000000000001 0.1923076923076923 0  0.05 0.1923076923076923 0  -0.05 0.2307692307692308 0  -0.025 0.2307692307692308 0  0 0.2307692307692308 0  0.02500000000000001 0.2307692307692308 0  0.05 0.2307692307692308 0  -0.05 0.2692307692307692 0  -0.025 0.2692307692307692 0  0 0.2692307692307692 0  0.02500000000000001 0.2692307692307692 0  0.05 0.2692307692307692 0  -0.05 0.3076923076923077 0  -0.025 0.3076923076923077 0  0 0.3076923076923077 0  0.02500000000000001 0.3076923076923077 0  0.05 0.3076923076923077 0  -0.05 0.3461538461538461 0  -0.025 0.3461538461538461 0  0 0.3461538461538461 0  0.02500000000000001 0.3461538461538461 0  0.05 0.3461538461538461 0  -0.05 0.3846153846153846 0  -0.025 0.3846153846153846 0  0 0.3846153846153846 0  0.02500000000000001 0.3846153846153846 0  0.05 0.3846153846153846 0  -0.05 0.4230769230769231 0  -0.025 0.4230769230769231 0  0 0.4230769230769231 0  0.02500000000000001 0.4230769230769231 0  0.05 0.4230769230769231 0  -0.05 0.4615384615384616 0  -0.025 0.4615384615384616 0  0 0.4615384615384616 0  0.02500000000000001 0.4615384615384616 0  0.05 0.4615384615384616 0  -0.05 0.5 0  -0.025 0.5 0  0 0.5 0  0.02500000000000001 0.5 0  0.05 0.5 0  -0.05 0.5384615384615384 0  -0.025 0.5384615384615384 0  0 0.5384615384615384 0  0.02500000000000001 0.5384615384615384 0  0.05 0.5384615384615384 0  -0.05 0.5769230769230769 0  -0.025 0.5769230769230769 0  0 0.5769230769230769 0  0.02500000000000001 0.5769230769230769 0  0.05 0.5769230769230769 0  -0.05 0.6153846153846154 0  -0.025 0.6153846153846154 0  0 0.6153846153846154 0  0.02500000000000001 0.6153846153846154 0  0.05 0.6153846153846154 0  -0.05 0.6538461538461539 0  -0.025 0.6538461538461539 0  0 0.6538461538461539 0  0.02500000000000001 0.6538461538461539 0  0.05 0.6538461538461539 0  -0.05 0.6923076923076923 0  -0.025 0.6923076923076923 0  0 0.6923076923076923 0  0.02500000000000001 0.6923076923076923 0  0.05 0.6923076923076923 0  -0.05 0.7307692307692307 0  -0.025 0.7307692307692307 0  0 0.7307692307692307 0  0.02500000000000001 0.7307692307692307 0  0.05 0.7307692307692307 0  -0.05 0.7692307692307693 0  -0.025 0.7692307692307693 0  0 0.7692307692307693 0  0.02500000000000001 0.7692307692307693 0  0.05 0.7692307692307693 0  -0.05 0.8076923076923077 0  -0.025 0.8076923076923077 0  0 0.8076923076923077 0  0.02500000000000001 0.8076923076923077 0  0.05 0.8076923076923077 0  -0.05 0.8461538461538461 0  -0.025 0.8461538461538461 0  0 0.8461538461538461 0  0.02500000000000001 0.8461538461538461 0  0.05 0.8461538461538461 0  -0.05 0.8846153846153846 0  -0.025 0.8846153846153846 0  0 0.8846153846153846 0  0.02500000000000001 0.8846153846153846 0  0.05 0.8846153846153846 0  -0.05 0.9230769230769231 0  -0.025 0.9230769230769231 0  0 0.9230769230769231 0  0.02500000000000001 0.9230769230769231 0  0.05 0.9230769230769231 0  -0.05 0.9615384615384616 0  -0.025 0.9615384615384616 0  0 0.9615384615384616 0  0.02500000000000001 0.9615384615384616 0  0.05 0.9615384615384616 0  -0.05 1 0  -0.025 1 0  0 1 0  0.02500000000000001 1 0  0.05 1 0  </DataArray>
</Points>
<Cells>
<DataArray  type="UInt32"  Name="connectivity"  format="ascii">0 1 6  0 5 6  1 2 7  1 6 7  2 3 8  2 7 8  3 4 9  3 8 9  5 6 11  5 10 11  6 7 12  6 11 12  7 8 13  7 12 13  8 9 14  8 13 14  10 11 16  10 15 16  11 12 17  11 16 17  12 13 18  12 17 18  13 14 19  13 18 19  15 16 21  15 20 21  16 17 22  16 21 22  17 18 23  17 22 23  18 19 24  18 23 24  20 21 26  20 25 26  21 22 27  21 26 27  22 23 28  22 27 28  23 24 29  23 28 29  25 26 31  25 30 31  26 27 32  26 31 32  27 28 33  27 32 33  28 29 34  28 33 34  30 31 36  30 35 36  31 32 37  31 36 37  32 33 38  32 37 38  33 34 39  33 38 39  35 36 41  35 40 41  36 37 42  36 41 42  37 38 43  37 42 43  38 39 44  38 43 44  40 41 46  40 45 46  41 42 47  41 46 47  42 43 48  42 47 48  43 44 49  43 48 49  45 46 51  45 50 51  46 47 52  46 51 52  47 48 53  47 52 53  48 49 54  48 53 54  50 51 56  50 55 56  51 52 57  51 56 57  52 53 58  52 57 58  53 54 59  53 58 59  55 56 61  55 60 61  56 57 62  56 61 62  57 58 63  57 62 63  58 59 64  58 63 64  60 61 66  60 65 66  61 62 67  61 66 67  62 63 68  62 67 68  63 64 69  63 68 69  65 66 71  65 70 71  66 67 72  66 71 72  67 68 73  67 72 73  68 69 74  68 73 74  70 71 76  70 75 76  71 72 77  71 76 77  72 73 78  72 77 78  73 74 79  73 78 79  75 76 81  75 80 81  76 77 82  76 81 82  77 78 83  77 82 83  78 79 84  78 83 84  80 81 86  80 85 86  81 82 87  81 86 87  82 83 88  82 87 88  83 84 89  83 88 89  85 86 91  85 90 91  86 87 92  86 91 92  87 88 93  87 92 93  88 89 94  88 93 94  90 91 96  90 95 96  91 92 97  91 96 97  92 93 98  92 97 98  93 94 99  93 98 99  95 96 101  95 100 101  96 97 102  96 101 102  97 98 103  97 102 103  98 99 104  98 103 104  100 101 106  100 105 106  101 102 107  101 106 107  102 103 108  102 107 108  103 104 109  103 108 109  105 106 111  105 110 111  106 107 112  106 111 112  107 108 113  107 112 113  108 109 114  108 113 114  110 111 116  110 115 116  111 112 117  111 116 117  112 113 118  112 117 118  113 114 119  113 118 119  115 116 121  115 120 121  116 117 122  116 121 122  117 118 123  117 122 123  118 119 124  118 123 124  120 121 126  120 125 126  121 122 127  121 126 127  122 123 128  122 127 128  123 124 129  123 128 129  125 126 131  125 130 131  126 127 132  126 131 132  127 128 133  127 132 133  128 129 134  128 133 134  </DataArray>
<DataArray  type="UInt32"  Name="offsets"  format="ascii">3 6 9 12 15 18 21 24 27 30 33 36 39 42 45 48 51 54 57 60 63 66 69 72 75 78 81 84 87 90 93 96 99 102 105 108 111 114 117 120 123 126 129 132 135 138 141 144 147 150 153 156 159 162 165 168 171 174 177 180 183 186 189 192 195 198 201 204 207 210 213 216 219 222 225 228 231 234 237 240 243 246 249 252 255 258 261 264 267 270 273 276 279 282 285 288 291 294 297 300 303 306 309 312 315 318 321 324 327 330 333 336 339 342 345 348 351 354 357 360 363 366 369 372 375 378 381 384 387 390 393 396 399 402 405 408 411 414 417 420 423 426 429 432 435 438 441 444 447 450 453 456 459 462 465 468 471 474 477 480 483 486 489 492 495 498 501 504 507 510 513 516 519 522 525 528 531 534 537 540 543 546 549 552 555 558 561 564 567 570 573 576 579 582 585 588 591 594 597 600 603 606 609 612 615 618 621 624 </DataArray>
<DataArray  type="UInt8"  Name="types"  format="ascii">5 5 5 5 5 5 5 5 5 5 5 5 5 5 5 5 5 5 5 5 5 5 5 5 5 5 5 5 5 5 5 5 5 5 5 5 5 5 5 5 5 5 5 5 5 5 5 5 5 5 5 5 5 5 5 5 5 5 5 5 5 5 5 5 5 5 5 5 5 5 5 5 5 5 5 5 5 5 5 5 5 5 5 5 5 5 5 5 5 5 5 5 5 5 5 5 5 5 5 5 5 5 5 5 5 5 5 5 5 5 5 5 5 5 5 5 5 5 5 5 5 5 5 5 5 5 5 5 5 5 5 5 5 5 5 5 5 5 5 5 5 5 5 5 5 5 5 5 5 5 5 5 5 5 5 5 5 5 5 5 5 5 5 5 5 5 5 5 5 5 5 5 5 5 5 5 5 5 5 5 5 5 5 5 5 5 5 5 5 5 5 5 5 5 5 5 5 5 5 5 5 5 5 5 5 5 5 5 </DataArray>
</Cells>
<PointData  Vectors="Displacement"> 
<DataArray  type="Float64"  Name="Displacement"  NumberOfComponents="3" format="ascii">-4.4402684334613582e-16 2.7414114637032826e-18 0.0000000000000000e+00  0.0000000000000000e+00 0.0000000000000000e+00 0.0000000000000000e+00  0.0000000000000000e+00 0.0000000000000000e+00 0.0000000000000000e+00  -6.3268106197324773e-17 1.1334152966775622e-18 0.0000000000000000e+00  1.8980431859197433e-16 -3.4002458900326871e-18 0.0000000000000000e+00  1.1961730178450495e-04 2.1923580843918666e-04 0.0000000000000000e+00  6.7208317752646322e-05 1.0850335933752239e-04 0.0000000000000000e+00  4.7852831119350685e-05 -4.5695855311515109e-06 0.0000000000000000e+00  6.6017657574173811e-05 -1.1700127734543868e-04 0.0000000000000000e+00  1.2004528357842521e-04 -2.3097802700740934e-04 0.0000000000000000e+00  3.6953337893872156e-04 4.5984095061298410e-04 0.0000000000000000e+00  3.1672174167735387e-04 2.2817089465481080e-04 0.0000000000000000e+00  2.9980379558408393e-04 -9.5555410692641989e-06 0.0000000000000000e+00  3.1877045387403147e-04 -2.4771827626366078e-04 0.0000000000000000e+00  3.7297220029137090e-04 -4.7997797026239341e-04 0.0000000000000000e+00  8.2097716321240916e-04 7.1408707159687922e-04 0.0000000000000000e+00  7.6585558544571173e-04 3.5179109934339186e-04 0.0000000000000000e+00  7.4752843051184266e-04 -1.4641682600177805e-05 0.0000000000000000e+00  7.6667817990064193e-04 -3.8116644981104350e-04 0.0000000000000000e+00  8.2331108543468208e-04 -7.4301296323657051e-04 0.0000000000000000e+00  1.4765068073050768e-03 9.7891212500239447e-04 0.0000000000000000e+00  1.4187996176366641e-03 4.8168088455858400e-04 0.0000000000000000e+00  1.3995827698190778e-03 -1.8822047802633420e-05 0.0000000000000000e+00  1.4190134185111992e-03 -5.1930069735651649e-04 0.0000000000000000e+00  1.4771427512917843e-03 -1.0159419332438817e-03 0.0000000000000000e+00  2.3443054319092610e-03 1.2511205214760842e-03 0.0000000000000000e+00  2.2868344104238787e-03 6.1483555586875380e-04 0.0000000000000000e+00  2.2677695543732806e-03 -2.2084152009260757e-05 0.0000000000000000e+00  2.2870891609790482e-03 -6.5956009254046846e-04 0.0000000000000000e+00  2.3459421743505255e-03 -1.2969029458473824e-03 0.0000000000000000e+00  3.4345772193764075e-03 1.5262963647132417e-03 0.0000000000000000e+00  3.3760563249145142e-03 7.4877017408987820e-04 0.0000000000000000e+00  3.3570405746182266e-03 -2.6392722861054076e-05 0.0000000000000000e+00  3.3773282367906632e-03 -8.0160331771411263e-04 0.0000000000000000e+00  3.4367969992366637e-03 -1.5793184518469090e-03 0.0000000000000000e+00  4.7424649693516554e-03 1.7975032451475346e-03 0.0000000000000000e+00  4.6876621038183085e-03 8.7960125436836202e-04 0.0000000000000000e+00  4.6701108513717048e-03 -3.0788388536039399e-05 0.0000000000000000e+00  4.6889007957078219e-03 -9.4121435903337834e-04 0.0000000000000000e+00  4.7457298875036753e-03 -1.8588522288082764e-03 0.0000000000000000e+00  6.2732004254920613e-03 2.0536319891725986e-03 0.0000000000000000e+00  6.2214499355672300e-03 1.0028961729902541e-03 0.0000000000000000e+00  6.2043650994968160e-03 -3.5053893711814336e-05 0.0000000000000000e+00  6.2221241597246223e-03 -1.0729374188340390e-03 0.0000000000000000e+00  6.2755136178860270e-03 -2.1236823368372608e-03 0.0000000000000000e+00  8.0000497180530306e-03 2.2844502559082411e-03 0.0000000000000000e+00  7.9550305395279363e-03 1.1143784044461468e-03 0.0000000000000000e+00  7.9403801217734320e-03 -3.9261473311068719e-05 0.0000000000000000e+00  7.9560082516951895e-03 -1.1926766807706533e-03 0.0000000000000000e+00  8.0027774920404648e-03 -2.3618863303151542e-03 0.0000000000000000e+00  9.9030493397850045e-03 2.4804930160027732e-03 0.0000000000000000e+00  9.8653056477862391e-03 1.2097602299697273e-03 0.0000000000000000e+00  9.8521579396196220e-03 -4.2604968783742885e-05 0.0000000000000000e+00  9.8651349057691361e-03 -1.2950697718944000e-03 0.0000000000000000e+00  9.9047096543563810e-03 -2.5658374130631953e-03 0.0000000000000000e+00  1.1943167808519204e-02 2.6385524482328017e-03 0.0000000000000000e+00  1.1911365845370715e-02 1.2888907881805840e-03 0.0000000000000000e+00  1.1900248093198691e-02 -4.6118688422395954e-05 0.0000000000000000e+00  1.1911792436360437e-02 -1.3809766781552220e-03 0.0000000000000000e+00  1.1944532649674171e-02 -2.7301289629163613e-03 0.0000000000000000e+00  1.4082993319090898e-02 2.7657416915993155e-03 0.0000000000000000e+00  1.4057703055516652e-02 1.3529998233757503e-03 0.0000000000000000e+00  1.4048814544377326e-02 -4.9332312711594020e-05 0.0000000000000000e+00  1.4057918518876604e-02 -1.4519794092507654e-03 0.0000000000000000e+00  1.4084913538449819e-02 -2.8650368593610438e-03 0.0000000000000000e+00  1.6312100448064901e-02 2.8730201484471582e-03 0.0000000000000000e+00  1.6288893240275468e-02 1.4062503934148224e-03 0.0000000000000000e+00  1.6280891134736592e-02 -5.3373061509497147e-05 0.0000000000000000e+00  1.6289668366813368e-02 -1.5130817402475621e-03 0.0000000000000000e+00  1.6313907460274561e-02 -2.9800412209734007e-03 0.0000000000000000e+00  1.8610350731105098e-02 2.9659680908857250e-03 0.0000000000000000e+00  1.8591347456716076e-02 1.4514830810250935e-03 0.0000000000000000e+00  1.8585324938759813e-02 -5.8116956227324533e-05 0.0000000000000000e+00  1.8592837040913010e-02 -1.5678639921131636e-03 0.0000000000000000e+00  1.8613979473793660e-02 -3.0823217211808467e-03 0.0000000000000000e+00  2.0982555427944572e-02 3.0491944747892560e-03 0.0000000000000000e+00  2.0964833797629728e-02 1.4902373047725724e-03 0.0000000000000000e+00  2.0959148350880970e-02 -6.3491457310641225e-05 0.0000000000000000e+00  2.0966205399409084e-02 -1.6174148570128745e-03 0.0000000000000000e+00  2.0986101184640876e-02 -3.1767605529317501e-03 0.0000000000000000e+00  2.3418511163055548e-02 3.1226965847336420e-03 0.0000000000000000e+00  2.3403907528852724e-02 1.5230789418047151e-03 0.0000000000000000e+00  2.3399835246989860e-02 -6.9919100452190964e-05 0.0000000000000000e+00  2.3406228914847234e-02 -1.6629024188815900e-03 0.0000000000000000e+00  2.3423541700913573e-02 -3.2621016139183102e-03 0.0000000000000000e+00  2.5915687871507172e-02 3.1809976003011916e-03 0.0000000000000000e+00  2.5905117727355390e-02 1.5477739086517158e-03 0.0000000000000000e+00  2.5902116341927683e-02 -7.6636923420054576e-05 0.0000000000000000e+00  2.5907285924688137e-02 -1.7013974229751641e-03 0.0000000000000000e+00  2.5921559020990564e-02 -3.3352744121360150e-03 0.0000000000000000e+00  2.8459769706147969e-02 3.2205233019022947e-03 0.0000000000000000e+00  2.8452060120826097e-02 1.5635197135386574e-03 0.0000000000000000e+00  2.8450422859164878e-02 -8.4814928431850326e-05 0.0000000000000000e+00  2.8455558357742029e-02 -1.7330610039068036e-03 0.0000000000000000e+00  2.8466877082179761e-02 -3.3896432373448121e-03 0.0000000000000000e+00  3.1028299268943564e-02 3.2409483233183135e-03 0.0000000000000000e+00  3.1025802602340870e-02 1.5695514877024704e-03 0.0000000000000000e+00  3.1026079388970354e-02 -9.3536845459733019e-05 0.0000000000000000e+00  3.1029554893412324e-02 -1.7565923574410201e-03 0.0000000000000000e+00  3.1036798110382648e-02 -3.4275585451701489e-03 0.0000000000000000e+00  3.3618140513247144e-02 3.2454697812699484e-03 0.0000000000000000e+00  3.3617249555592914e-02 1.5672654794671758e-03 0.0000000000000000e+00  3.3617636556902912e-02 -1.0247549430731525e-04 0.0000000000000000e+00  3.3620360524693305e-02 -1.7718042067789417e-03 0.0000000000000000e+00  3.3624901546046290e-02 -3.4482391375578688e-03 0.0000000000000000e+00  3.6203920470247793e-02 3.2330900189067972e-03 0.0000000000000000e+00  3.6207031578935713e-02 1.5583271329250108e-03 0.0000000000000000e+00  3.6208717940923604e-02 -1.1044536444862134e-04 0.0000000000000000e+00  3.6209745749857997e-02 -1.7786708778141224e-03 0.0000000000000000e+00  3.6210148257592410e-02 -3.4519550035945145e-03 0.0000000000000000e+00  3.8779233527327275e-02 3.2085098502386221e-03 0.0000000000000000e+00  3.8783650942169019e-02 1.5433826035862312e-03 0.0000000000000000e+00  3.8785744040034799e-02 -1.1802583692092958e-04 0.0000000000000000e+00  3.8786629081836714e-02 -1.7784323091568155e-03 0.0000000000000000e+00  3.8785561833723114e-02 -3.4419397313641652e-03 0.0000000000000000e+00  4.1330200170782795e-02 3.1772625064408898e-03 0.0000000000000000e+00  4.1334717610472235e-02 1.5258711973500918e-03 0.0000000000000000e+00  4.1336593669204967e-02 -1.2571638736080538e-04 0.0000000000000000e+00  4.1337167824231524e-02 -1.7760161085830109e-03 0.0000000000000000e+00  4.1335761062048539e-02 -3.4246556753132779e-03 0.0000000000000000e+00  4.3852967562607890e-02 3.1466264778103421e-03 0.0000000000000000e+00  4.3857338222566607e-02 1.5090870588255721e-03 0.0000000000000000e+00  4.3860338752933083e-02 -1.3239979598055556e-04 0.0000000000000000e+00  4.3862012952835268e-02 -1.7729624664989431e-03 0.0000000000000000e+00  4.3861001345157948e-02 -3.4100206741365692e-03 0.0000000000000000e+00  4.6360986244522492e-02 3.1289729634507309e-03 0.0000000000000000e+00  4.6361731993431028e-02 1.4936254996931893e-03 0.0000000000000000e+00  4.6365432754069201e-02 -1.4440208936917847e-04 0.0000000000000000e+00  4.6368701897826221e-02 -1.7729546717945557e-03 0.0000000000000000e+00  4.6369030006546949e-02 -3.3965952705172007e-03 0.0000000000000000e+00  4.8866756188923742e-02 3.1278581573342193e-03 0.0000000000000000e+00  4.8862393805797176e-02 1.4905107290500610e-03 0.0000000000000000e+00  4.8831826506476404e-02 -1.7937927947627263e-04 0.0000000000000000e+00  4.8851609454460480e-02 -1.7715447187753189e-03 0.0000000000000000e+00  4.8854176387044555e-02 -3.3900348899308730e-03 0.0000000000000000e+00  </DataArray> 
</PointData> 
</Piece>
</UnstructuredGrid>
</VTKFile>