<?xml version="1.0"?>
<VTKFile type="UnstructuredGrid"  version="0.1"  >
<UnstructuredGrid>
<Piece  NumberOfPoints="135" NumberOfCells="208">
<Points>
<DataArray  type="Float64"  NumberOfComponents="3"  format="ascii">-0.05 0 0  -0.025 0 0  0 0 0  0.02500000000000001 0 0  0.05 0 0  -0.05 0.03846153846153846 0  -0.025 0.03846153846153846 0  0 0.03846153846153846 0  0.02500000000000001 0.03846153846153846 0  0.05 0.03846153846153846 0  -0.05 0.07692307692307693 0  -0.025 0.07692307692307693 0  0 0.07692307692307693 0  0.02500000000000001 0.07692307692307693 0  0.05 0.07692307692307693 0  -0.05 0.1153846153846154 0  -0.025 0.1153846153846154 0  0 0.1153846153846154 0  0.02500000000000001 0.1153846153846154 0  0.05 0.1153846153846154 0  -0.05 0.1538461538461539 0  -0.025 0.1538461538461539 0  0 0.1538461538461539 0  0.02500000000000001 0.1538461538461539 0  0.05 0.1538461538461539 0  -0.05 0.1923076923076923 0  -0.025 0.1923076923076923 0  0 0.1923076923076923 0  0.02500000000000001 0.1923076923076923 0  0.05 0.1923076923076923 0  -0.05 0.2307692307692308 0  -0.025 0.2307692307692308 0  0 0.2307692307692308 0  0.02500000000000001 0.2307692307692308 0  0.05 0.2307692307692308 0  -0.05 0.2692307692307692 0  -0.025 0.2692307692307692 0  0 0.2692307692307692 0  0.02500000000000001 0.2692307692307692 0  0.05 0.2692307692307692 0  -0.05 0.3076923076923077 0  -0.025 0.3076923076923077 0  0 0.3076923076923077 0  0.02500000000000001 0.3076923076923077 0  0.05 0.3076923076923077 0  -0.05 0.3461538461538461 0  -0.025 0.3461538461538461 0  0 0.3461538461538461 0  0.02500000000000001 0.3461538461538461 0  0.05 0.3461538461538461 0  -0.05 0.3846153846153846 0  -0.025 0.3846153846153846 0  0 0.3846153846153846 0  0.02500000000000001 0.3846153846153846 0  0.05 0.3846153846153846 0  -0.05 0.4230769230769231 0  -0.025 0.4230769230769231 0  0 0.4230769230769231 0  0.02500000000000001 0.4230769230769231 0  0.05 0.4230769230769231 0  -0.05 0.4615384615384616 0  -0.025 0.4615384615384616 0  0 0.4615384615384616 0  0.02500000000000001 0.4615384615384616 0  0.05 0.4615384615384616 0  -0.05 0.5 0  -0.025 0.5 0  0 0.5 0  0.02500000000000001 0.5 0  0.05 0.5 0  -0.05 0.5384615384615384 0  -0.025 0.5384615384615384 0  0 0.5384615384615384 0  0.02500000000000001 0.5384615384615384 0  0.05 0.5384615384615384 0  -0.05 0.5769230769230769 0  -0.025 0.5769230769230769 0  0 0.5769230769230769 0  0.02500000000000001 0.5769230769230769 0  0.05 0.5769230769230769 0  -0.05 0.6153846153846154 0  -0.025 0.6153846153846154 0  0 0.6153846153846154 0  0.02500000000000001 0.6153846153846154 0  0.05 0.6153846153846154 0  -0.05 0.6538461538461539 0  -0.025 0.6538461538461539 0  0 0.6538461538461539 0  0.02500000000000001 0.6538461538461539 0  0.05 0.6538461538461539 0  -0.05 0.6923076923076923 0  -0.025 0.6923076923076923 0  0 0.6923076923076923 0  0.02500000000000001 0.6923076923076923 0  0.05 0.6923076923076923 0  -0.05 0.7307692307692307 0  -0.025 0.7307692307692307 0  0 0.7307692307692307 0  0.02500000000000001 0.7307692307692307 0  0.05 0.7307692307692307 0  -0.05 0.7692307692307693 0  -0.025 0.7692307692307693 0  0 0.7692307692307693 0  0.02500000000000001 0.7692307692307693 0  0.05 0.7692307692307693 0  -0.05 0.8076923076923077 0  -0.025 0.8076923076923077 0  0 0.8076923076923077 0  0.02500000000000001 0.8076923076923077 0  0.05 0.8076923076923077 0  -0.05 0.8461538461538461 0  -0.025 0.8461538461538461 0  0 0.8461538461538461 0  0.02500000000000001 0.8461538461538461 0  0.05 0.8461538461538461 0  -0.05 0.8846153846153846 0  -0.025 0.8846153846153846 0  0 0.8846153846153846 0  0.02500000000000001 0.8846153846153846 0  0.05 0.8846153846153846 0  -0.05 0.9230769230769231 0  -0.025 0.9230769230769231 0  0 0.9230769230769231 0  0.02500000000000001 0.9230769230769231 0  0.05 0.9230769230769231 0  -0.05 0.9615384615384616 0  -0.025 0.9615384615384616 0  0 0.9615384615384616 0  0.02500000000000001 0.9615384615384616 0  0.05 0.9615384615384616 0  -0.05 1 0  -0.025 1 0  0 1 0  0.02500000000000001 1 0  0.05 1 0  </DataArray>
</Points>
<Cells>
<DataArray  type="UInt32"  Name="connectivity"  format="ascii">0 1 6  0 5 6  1 2 7  1 6 7  2 3 8  2 7 8  3 4 9  3 8 9  5 6 11  5 10 11  6 7 12  6 11 12  7 8 13  7 12 13  8 9 14  8 13 14  10 11 16  10 15 16  11 12 17  11 16 17  12 13 18  12 17 18  13 14 19  13 18 19  15 16 21  15 20 21  16 17 22  16 21 22  17 18 23  17 22 23  18 19 24  18 23 24  20 21 26  20 25 26  21 22 27  21 26 27  22 23 28  22 27 28  23 24 29  23 28 29  25 26 31  25 30 31  26 27 32  26 31 32  27 28 33  27 32 33  28 29 34  28 33 34  30 31 36  30 35 36  31 32 37  31 36 37  32 33 38  32 37 38  33 34 39  33 38 39  35 36 41  35 40 41  36 37 42  36 41 42  37 38 43  37 42 43  38 39 44  38 43 44  40 41 46  40 45 46  41 42 47  41 46 47  42 43 48  42 47 48  43 44 49  43 48 49  45 46 51  45 50 51  46 47 52  46 51 52  47 48 53  47 52 53  48 49 54  48 53 54  50 51 56  50 55 56  51 52 57  51 56 57  52 53 58  52 57 58  53 54 59  53 58 59  55 56 61  55 60 61  56 57 62  56 61 62  57 58 63  57 62 63  58 59 64  58 63 64  60 61 66  60 65 66  61 62 67  61 66 67  62 63 68  62 67 68  63 64 69  63 68 69  65 66 71  65 70 71  66 67 72  66 71 72  67 68 73  67 72 73  68 69 74  68 73 74  70 71 76  70 75 76  71 72 77  71 76 77  72 73 78  72 77 78  73 74 79  73 78 79  75 76 81  75 80 81  76 77 82  76 81 82  77 78 83  77 82 83  78 79 84  78 83 84  80 81 86  80 85 86  81 82 87  81 86 87  82 83 88  82 87 88  83 84 89  83 88 89  85 86 91  85 90 91  86 87 92  86 91 92  87 88 93  87 92 93  88 89 94  88 93 94  90 91 96  90 95 96  91 92 97  91 96 97  92 93 98  92 97 98  93 94 99  93 98 99  95 96 101  95 100 101  96 97 102  96 101 102  97 98 103  97 102 103  98 99 104  98 103 104  100 101 106  100 105 106  101 102 107  101 106 107  102 103 108  102 107 108  103 104 109  103 108 109  105 106 111  105 110 111  106 107 112  106 111 112  107 108 113  107 112 113  108 109 114  108 113 114  110 111 116  110 115 116  111 112 117  111 116 117  112 113 118  112 117 118  113 114 119  113 118 119  115 116 121  115 120 121  116 117 122  116 121 122  117 118 123  117 122 123  118 119 124  118 123 124  120 121 126  120 125 126  121 122 127  121 126 127  122 123 128  122 127 128  123 124 129  123 128 129  125 126 131  125 130 131  126 127 132  126 131 132  127 128 133  127 132 133  128 129 134  128 133 134  </DataArray>
<DataArray  type="UInt32"  Name="offsets"  format="ascii">3 6 9 12 15 18 21 24 27 30 33 36 39 42 45 48 51 54 57 60 63 66 69 72 75 78 81 84 87 90 93 96 99 102 105 108 111 114 117 120 123 126 129 132 135 138 141 144 147 150 153 156 159 162 165 168 171 174 177 180 183 186 189 192 195 198 201 204 207 210 213 216 219 222 225 228 231 234 237 240 243 246 249 252 255 258 261 264 267 270 273 276 279 282 285 288 291 294 297 300 303 306 309 312 315 318 321 324 327 330 333 336 339 342 345 348 351 354 357 360 363 366 369 372 375 378 381 384 387 390 393 396 399 402 405 408 411 414 417 420 423 426 429 432 435 438 441 444 447 450 453 456 459 462 465 468 471 474 477 480 483 486 489 492 495 498 501 504 507 510 513 516 519 522 525 528 531 534 537 540 543 546 549 552 555 558 561 564 567 570 573 576 579 582 585 588 591 594 597 600 603 606 609 612 615 618 621 624 </DataArray>
<DataArray  type="UInt8"  Name="types"  format="ascii">5 5 5 5 5 5 5 5 5 5 5 5 5 5 5 5 5 5 5 5 5 5 5 5 5 5 5 5 5 5 5 5 5 5 5 5 5 5 5 5 5 5 5 5 5 5 5 5 5 5 5 5 5 5 5 5 5 5 5 5 5 5 5 5 5 5 5 5 5 5 5 5 5 5 5 5 5 5 5 5 5 5 5 5 5 5 5 5 5 5 5 5 5 5 5 5 5 5 5 5 5 5 5 5 5 5 5 5 5 5 5 5 5 5 5 5 5 5 5 5 5 5 5 5 5 5 5 5 5 5 5 5 5 5 5 5 5 5 5 5 5 5 5 5 5 5 5 5 5 5 5 5 5 5 5 5 5 5 5 5 5 5 5 5 5 5 5 5 5 5 5 5 5 5 5 5 5 5 5 5 5 5 5 5 5 5 5 5 5 5 5 5 5 5 5 5 5 5 5 5 5 5 5 5 5 5 5 5 </DataArray>
</Cells>
<PointData  Vectors="Displacement"> 
<DataArray  type="Float64"  Name="Displacement"  NumberOfComponents="3" format="ascii">-4.0698339397738338e-16 3.3827603546289857e-18 0.0000000000000000e+00  0.0000000000000000e+00 0.0000000000000000e+00 0.0000000000000000e+00  0.0000000000000000e+00 0.0000000000000000e+00 0.0000000000000000e+00  -7.4232377899661060e-17 8.5429942102734201e-19 0.0000000000000000e+00  2.2269713369898320e-16 -2.5628982630820260e-18 0.0000000000000000e+00  1.0886689273012122e-04 1.5955097817126721e-04 0.0000000000000000e+00  7.3170625862074411e-05 7.5874871610806166e-05 0.0000000000000000e+00  6.0992286845480604e-05 -1.6934200830334591e-07 0.0000000000000000e+00  7.2497495481029626e-05 -7.5558767511230769e-05 0.0000000000000000e+00  1.0817713201750433e-04 -1.6053181022154160e-04 0.0000000000000000e+00  2.9715944555849984e-04 3.1074198909101619e-04 0.0000000000000000e+00  2.6454224582653826e-04 1.5306153547295934e-04 0.0000000000000000e+00  2.5375147033186040e-04 -4.5569174219888365e-07 0.0000000000000000e+00  2.6469658938683862e-04 -1.5383928708020782e-04 0.0000000000000000e+00  2.9674799671486888e-04 -3.1045887874846316e-04 0.0000000000000000e+00  5.9818084069436018e-04 4.5687263720581842e-04 0.0000000000000000e+00  5.6588565648894493e-04 2.2761175981386540e-04 0.0000000000000000e+00  5.5542197595637134e-04 1.9308748224413384e-07 0.0000000000000000e+00  5.6597286457498472e-04 -2.2737114401828298e-04 0.0000000000000000e+00  5.9726693191587167e-04 -4.5621147111576862e-04 0.0000000000000000e+00  1.0059464615402962e-03 6.0083874665125224e-04 0.0000000000000000e+00  9.7348565699583410e-04 3.0058887893056154e-04 0.0000000000000000e+00  9.6312239662715762e-04 7.1163592522857308e-07 0.0000000000000000e+00  9.7359662431958742e-04 -2.9919686179404368e-04 0.0000000000000000e+00  1.0046463025855073e-03 -5.9833600118207450e-04 0.0000000000000000e+00  1.5190302051344821e-03 7.4622347900073856e-04 0.0000000000000000e+00  1.4869921629091325e-03 3.7474636546195456e-04 0.0000000000000000e+00  1.4763722321114220e-03 1.7482440595574037e-06 0.0000000000000000e+00  1.4865478571676107e-03 -3.7125588834652451e-04 0.0000000000000000e+00  1.5175193182779985e-03 -7.4224476238157560e-04 0.0000000000000000e+00  2.1475634522305415e-03 8.9734134001481834e-04 0.0000000000000000e+00  2.1132446414386815e-03 4.4993795964180208e-04 0.0000000000000000e+00  2.1026952599887613e-03 2.7761660568869183e-06 0.0000000000000000e+00  2.1132495673769664e-03 -4.4463428325079653e-04 0.0000000000000000e+00  2.1457502361347351e-03 -8.9144478896080752e-04 0.0000000000000000e+00  2.8933387501429405e-03 1.0497830904493189e-03 0.0000000000000000e+00  2.8611746917663683e-03 5.2576348804260617e-04 0.0000000000000000e+00  2.8506173157217293e-03 3.4147677939439401e-06 0.0000000000000000e+00  2.8609369530707023e-03 -5.1905836753311655e-04 0.0000000000000000e+00  2.8925995552448085e-03 -1.0429065087485174e-03 0.0000000000000000e+00  3.7613188602591404e-03 1.1999604387601360e-03 0.0000000000000000e+00  3.7285322540439314e-03 5.9993303744082429e-04 0.0000000000000000e+00  3.7187965552748560e-03 3.5591158581655815e-06 0.0000000000000000e+00  3.7294177307668395e-03 -5.9330860380935871e-04 0.0000000000000000e+00  3.7614747203399660e-03 -1.1936599970090972e-03 0.0000000000000000e+00  4.7476550581291967e-03 1.3443970118171748e-03 0.0000000000000000e+00  4.7184897434509659e-03 6.6925478126870683e-04 0.0000000000000000e+00  4.7099215293902172e-03 2.1670798411412690e-06 0.0000000000000000e+00  4.7199466359071768e-03 -6.6521835095246259e-04 0.0000000000000000e+00  4.7497960340305420e-03 -1.3403379800021287e-03 0.0000000000000000e+00  5.8509367646806471e-03 1.4730552390585855e-03 0.0000000000000000e+00  5.8259862480398968e-03 7.3049631379076081e-04 0.0000000000000000e+00  5.8191273453514925e-03 -1.4410350051387484e-07 0.0000000000000000e+00  5.8283517785425567e-03 -7.3120833983974208e-04 0.0000000000000000e+00  5.8549093944046246e-03 -1.4743117972875813e-03 0.0000000000000000e+00  7.0557700300509620e-03 1.5773026183234105e-03 0.0000000000000000e+00  7.0361782988449919e-03 7.7852233227579089e-04 0.0000000000000000e+00  7.0315037801190394e-03 -4.0499357713703383e-06 0.0000000000000000e+00  7.0395066843506847e-03 -7.8690240177260111e-04 0.0000000000000000e+00  7.0611243642366697e-03 -1.5852242615110622e-03 0.0000000000000000e+00  8.3342744303876570e-03 1.6479777087460080e-03 0.0000000000000000e+00  8.3229118333922516e-03 8.1151276893238686e-04 0.0000000000000000e+00  8.3202840616426969e-03 -8.6145181702772253e-06 0.0000000000000000e+00  8.3262066641034190e-03 -8.2879004137540368e-04 0.0000000000000000e+00  8.3407179284788677e-03 -1.6649594259784779e-03 0.0000000000000000e+00  9.6599049240435417e-03 1.6858979986052170e-03 0.0000000000000000e+00  9.6529326104680749e-03 8.2826280150671719e-04 0.0000000000000000e+00  9.6525178236392430e-03 -1.3576005696639188e-05 0.0000000000000000e+00  9.6568134696991218e-03 -8.5550867745531336e-04 0.0000000000000000e+00  9.6658945279226166e-03 -1.7120461020378769e-03 0.0000000000000000e+00  1.1000670679781718e-02 1.6937446332650561e-03 0.0000000000000000e+00  1.1001255437109173e-02 8.3067696597148067e-04 0.0000000000000000e+00  1.1002407300817080e-02 -1.8588634558322485e-05 0.0000000000000000e+00  1.1004302512912300e-02 -8.6761252198875216e-04 0.0000000000000000e+00  1.1006550857285892e-02 -1.7294053926248756e-03 0.0000000000000000e+00  1.2338902426312677e-02 1.6760902982426303e-03 0.0000000000000000e+00  1.2342558628920954e-02 8.2107317260442009e-04 0.0000000000000000e+00  1.2345145907007724e-02 -2.2893684182283578e-05 0.0000000000000000e+00  1.2345631238303718e-02 -8.6687109826838688e-04 0.0000000000000000e+00  1.2343756697680255e-02 -1.7208750183904313e-03 0.0000000000000000e+00  1.3651883833113880e-02 1.6388189948248642e-03 0.0000000000000000e+00  1.3659664530487212e-02 8.0148787574025487e-04 0.0000000000000000e+00  1.3663252853424301e-02 -2.7274545351710551e-05 0.0000000000000000e+00  1.3662333328262936e-02 -8.5592403208991177e-04 0.0000000000000000e+00  1.3656413156845860e-02 -1.6918189869702532e-03 0.0000000000000000e+00  1.4926457688702290e-02 1.5865548016521785e-03 0.0000000000000000e+00  1.4936548255999096e-02 7.7561818876942170e-04 0.0000000000000000e+00  1.4940847843724469e-02 -3.1161335251204587e-05 0.0000000000000000e+00  1.4939211375904451e-02 -8.3805472059350161e-04 0.0000000000000000e+00  1.4931007022260957e-02 -1.6486282382293805e-03 0.0000000000000000e+00  1.6155705141464860e-02 1.5291291076225198e-03 0.0000000000000000e+00  1.6165464240429864e-02 7.4561657952097998e-04 0.0000000000000000e+00  1.6170413279956698e-02 -3.5639023487148480e-05 0.0000000000000000e+00  1.6168886785350056e-02 -8.1703922358160829e-04 0.0000000000000000e+00  1.6160565062960600e-02 -1.5993292768008772e-03 0.0000000000000000e+00  1.7337141112937698e-02 1.4705268903077043e-03 0.0000000000000000e+00  1.7348602569268814e-02 7.1500292687839615e-04 0.0000000000000000e+00  1.7353653323159218e-02 -4.0263122028071659e-05 0.0000000000000000e+00  1.7351781078843605e-02 -7.9547656832965844e-04 0.0000000000000000e+00  1.7342702661680212e-02 -1.5503792300666822e-03 0.0000000000000000e+00  1.8480146303191315e-02 1.4152886061312838e-03 0.0000000000000000e+00  1.8489298780617027e-02 6.8461908838818428e-04 0.0000000000000000e+00  1.8494445498667179e-02 -4.4981096528753274e-05 0.0000000000000000e+00  1.8493117052257639e-02 -7.7447778402558261e-04 0.0000000000000000e+00  1.8485435319151641e-02 -1.5032905102208413e-03 0.0000000000000000e+00  1.9582212221738827e-02 1.3608127757228179e-03 0.0000000000000000e+00  1.9592799595431230e-02 6.5515433048953702e-04 0.0000000000000000e+00  1.9597411224943635e-02 -4.9593763748224472e-05 0.0000000000000000e+00  1.9595482047481967e-02 -7.5385408638872461e-04 0.0000000000000000e+00  1.9586965018221453e-02 -1.4574484043321523e-03 0.0000000000000000e+00  2.0646489667160040e-02 1.3066245716245649e-03 0.0000000000000000e+00  2.0655496623786226e-02 6.2693866587001782e-04 0.0000000000000000e+00  2.0659644241931587e-02 -5.3350558170973000e-05 0.0000000000000000e+00  2.0657927908327683e-02 -7.3361388513249143e-04 0.0000000000000000e+00  2.0650420643564267e-02 -1.4119659715396684e-03 0.0000000000000000e+00  2.1668372979182008e-02 1.2549246938584125e-03 0.0000000000000000e+00  2.1676553322226341e-02 5.9984834688092171e-04 0.0000000000000000e+00  2.1680652023841510e-02 -5.7590461907274652e-05 0.0000000000000000e+00  2.1679738907096728e-02 -7.1538139262599363e-04 0.0000000000000000e+00  2.1673577450531924e-02 -1.3697231196124321e-03 0.0000000000000000e+00  2.2648826580349498e-02 1.2084913244370154e-03 0.0000000000000000e+00  2.2656130183942969e-02 5.7571134464347523e-04 0.0000000000000000e+00  2.2661373955689339e-02 -6.3186133707397531e-05 0.0000000000000000e+00  2.2662645302647069e-02 -7.0148316975557779e-04 0.0000000000000000e+00  2.2658089444540962e-02 -1.3337525617186958e-03 0.0000000000000000e+00  2.3601288983224812e-02 1.1808778111491740e-03 0.0000000000000000e+00  2.3603207600798023e-02 5.5634814876010506e-04 0.0000000000000000e+00  2.3608314156963045e-02 -7.3292077567689700e-05 0.0000000000000000e+00  2.3611715360780088e-02 -6.9435643340592902e-04 0.0000000000000000e+00  2.3611271756663662e-02 -1.3072493710440994e-03 0.0000000000000000e+00  2.4550597509697913e-02 1.1781823115643187e-03 0.0000000000000000e+00  2.4546594587419361e-02 5.5081169476296245e-04 0.0000000000000000e+00  2.4516998237117105e-02 -1.0929573107270077e-04 0.0000000000000000e+00  2.4537929660659652e-02 -6.8993176888702031e-04 0.0000000000000000e+00  2.4539496517958458e-02 -1.2980790852518008e-03 0.0000000000000000e+00  </DataArray> 
</PointData> 
</Piece>
</UnstructuredGrid>
</VTKFile>