<?xml version="1.0"?>
<VTKFile type="UnstructuredGrid"  version="0.1"  >
<UnstructuredGrid>
<Piece  NumberOfPoints="135" NumberOfCells="208">
<Points>
<DataArray  type="Float64"  NumberOfComponents="3"  format="ascii">-0.05 0 0  -0.025 0 0  0 0 0  0.02500000000000001 0 0  0.05 0 0  -0.05 0.03846153846153846 0  -0.025 0.03846153846153846 0  0 0.03846153846153846 0  0.02500000000000001 0.03846153846153846 0  0.05 0.03846153846153846 0  -0.05 0.07692307692307693 0  -0.025 0.07692307692307693 0  0 0.07692307692307693 0  0.02500000000000001 0.07692307692307693 0  0.05 0.07692307692307693 0  -0.05 0.1153846153846154 0  -0.025 0.1153846153846154 0  0 0.1153846153846154 0  0.02500000000000001 0.1153846153846154 0  0.05 0.1153846153846154 0  -0.05 0.1538461538461539 0  -0.025 0.1538461538461539 0  0 0.1538461538461539 0  0.02500000000000001 0.1538461538461539 0  0.05 0.1538461538461539 0  -0.05 0.1923076923076923 0  -0.025 0.1923076923076923 0  0 0.1923076923076923 0  0.02500000000000001 0.1923076923076923 0  0.05 0.1923076923076923 0  -0.05 0.2307692307692308 0  -0.025 0.2307692307692308 0  0 0.2307692307692308 0  0.02500000000000001 0.2307692307692308 0  0.05 0.2307692307692308 0  -0.05 0.2692307692307692 0  -0.025 0.2692307692307692 0  0 0.2692307692307692 0  0.02500000000000001 0.2692307692307692 0  0.05 0.2692307692307692 0  -0.05 0.3076923076923077 0  -0.025 0.3076923076923077 0  0 0.3076923076923077 0  0.02500000000000001 0.3076923076923077 0  0.05 0.3076923076923077 0  -0.05 0.3461538461538461 0  -0.025 0.3461538461538461 0  0 0.3461538461538461 0  0.02500000000000001 0.3461538461538461 0  0.05 0.3461538461538461 0  -0.05 0.3846153846153846 0  -0.025 0.3846153846153846 0  0 0.3846153846153846 0  0.02500000000000001 0.3846153846153846 0  0.05 0.3846153846153846 0  -0.05 0.4230769230769231 0  -0.025 0.4230769230769231 0  0 0.4230769230769231 0  0.02500000000000001 0.4230769230769231 0  0.05 0.4230769230769231 0  -0.05 0.4615384615384616 0  -0.025 0.4615384615384616 0  0 0.4615384615384616 0  0.02500000000000001 0.4615384615384616 0  0.05 0.4615384615384616 0  -0.05 0.5 0  -0.025 0.5 0  0 0.5 0  0.02500000000000001 0.5 0  0.05 0.5 0  -0.05 0.5384615384615384 0  -0.025 0.5384615384615384 0  0 0.5384615384615384 0  0.02500000000000001 0.5384615384615384 0  0.05 0.5384615384615384 0  -0.05 0.5769230769230769 0  -0.025 0.5769230769230769 0  0 0.5769230769230769 0  0.02500000000000001 0.5769230769230769 0  0.05 0.5769230769230769 0  -0.05 0.6153846153846154 0  -0.025 0.6153846153846154 0  0 0.6153846153846154 0  0.02500000000000001 0.6153846153846154 0  0.05 0.6153846153846154 0  -0.05 0.6538461538461539 0  -0.025 0.6538461538461539 0  0 0.6538461538461539 0  0.02500000000000001 0.6538461538461539 0  0.05 0.6538461538461539 0  -0.05 0.6923076923076923 0  -0.025 0.6923076923076923 0  0 0.6923076923076923 0  0.02500000000000001 0.6923076923076923 0  0.05 0.6923076923076923 0  -0.05 0.7307692307692307 0  -0.025 0.7307692307692307 0  0 0.7307692307692307 0  0.02500000000000001 0.7307692307692307 0  0.05 0.7307692307692307 0  -0.05 0.7692307692307693 0  -0.025 0.7692307692307693 0  0 0.7692307692307693 0  0.02500000000000001 0.7692307692307693 0  0.05 0.7692307692307693 0  -0.05 0.8076923076923077 0  -0.025 0.8076923076923077 0  0 0.8076923076923077 0  0.02500000000000001 0.8076923076923077 0  0.05 0.8076923076923077 0  -0.05 0.8461538461538461 0  -0.025 0.8461538461538461 0  0 0.8461538461538461 0  0.02500000000000001 0.8461538461538461 0  0.05 0.8461538461538461 0  -0.05 0.8846153846153846 0  -0.025 0.8846153846153846 0  0 0.8846153846153846 0  0.02500000000000001 0.8846153846153846 0  0.05 0.8846153846153846 0  -0.05 0.9230769230769231 0  -0.025 0.9230769230769231 0  0 0.9230769230769231 0  0.02500000000000001 0.9230769230769231 0  0.05 0.9230769230769231 0  -0.05 0.9615384615384616 0  -0.025 0.9615384615384616 0  0 0.9615384615384616 0  0.02500000000000001 0.9615384615384616 0  0.05 0.9615384615384616 0  -0.05 1 0  -0.025 1 0  0 1 0  0.02500000000000001 1 0  0.05 1 0  </DataArray>
</Points>
<Cells>
<DataArray  type="UInt32"  Name="connectivity"  format="ascii">0 1 6  0 5 6  1 2 7  1 6 7  2 3 8  2 7 8  3 4 9  3 8 9  5 6 11  5 10 11  6 7 12  6 11 12  7 8 13  7 12 13  8 9 14  8 13 14  10 11 16  10 15 16  11 12 17  11 16 17  12 13 18  12 17 18  13 14 19  13 18 19  15 16 21  15 20 21  16 17 22  16 21 22  17 18 23  17 22 23  18 19 24  18 23 24  20 21 26  20 25 26  21 22 27  21 26 27  22 23 28  22 27 28  23 24 29  23 28 29  25 26 31  25 30 31  26 27 32  26 31 32  27 28 33  27 32 33  28 29 34  28 33 34  30 31 36  30 35 36  31 32 37  31 36 37  32 33 38  32 37 38  33 34 39  33 38 39  35 36 41  35 40 41  36 37 42  36 41 42  37 38 43  37 42 43  38 39 44  38 43 44  40 41 46  40 45 46  41 42 47  41 46 47  42 43 48  42 47 48  43 44 49  43 48 49  45 46 51  45 50 51  46 47 52  46 51 52  47 48 53  47 52 53  48 49 54  48 53 54  50 51 56  50 55 56  51 52 57  51 56 57  52 53 58  52 57 58  53 54 59  53 58 59  55 56 61  55 60 61  56 57 62  56 61 62  57 58 63  57 62 63  58 59 64  58 63 64  60 61 66  60 65 66  61 62 67  61 66 67  62 63 68  62 67 68  63 64 69  63 68 69  65 66 71  65 70 71  66 67 72  66 71 72  67 68 73  67 72 73  68 69 74  68 73 74  70 71 76  70 75 76  71 72 77  71 76 77  72 73 78  72 77 78  73 74 79  73 78 79  75 76 81  75 80 81  76 77 82  76 81 82  77 78 83  77 82 83  78 79 84  78 83 84  80 81 86  80 85 86  81 82 87  81 86 87  82 83 88  82 87 88  83 84 89  83 88 89  85 86 91  85 90 91  86 87 92  86 91 92  87 88 93  87 92 93  88 89 94  88 93 94  90 91 96  90 95 96  91 92 97  91 96 97  92 93 98  92 97 98  93 94 99  93 98 99  95 96 101  95 100 101  96 97 102  96 101 102  97 98 103  97 102 103  98 99 104  98 103 104  100 101 106  100 105 106  101 102 107  101 106 107  102 103 108  102 107 108  103 104 109  103 108 109  105 106 111  105 110 111  106 107 112  106 111 112  107 108 113  107 112 113  108 109 114  108 113 114  110 111 116  110 115 116  111 112 117  111 116 117  112 113 118  112 117 118  113 114 119  113 118 119  115 116 121  115 120 121  116 117 122  116 121 122  117 118 123  117 122 123  118 119 124  118 123 124  120 121 126  120 125 126  121 122 127  121 126 127  122 123 128  122 127 128  123 124 129  123 128 129  125 126 131  125 130 131  126 127 132  126 131 132  127 128 133  127 132 133  128 129 134  128 133 134  </DataArray>
<DataArray  type="UInt32"  Name="offsets"  format="ascii">3 6 9 12 15 18 21 24 27 30 33 36 39 42 45 48 51 54 57 60 63 66 69 72 75 78 81 84 87 90 93 96 99 102 105 108 111 114 117 120 123 126 129 132 135 138 141 144 147 150 153 156 159 162 165 168 171 174 177 180 183 186 189 192 195 198 201 204 207 210 213 216 219 222 225 228 231 234 237 240 243 246 249 252 255 258 261 264 267 270 273 276 279 282 285 288 291 294 297 300 303 306 309 312 315 318 321 324 327 330 333 336 339 342 345 348 351 354 357 360 363 366 369 372 375 378 381 384 387 390 393 396 399 402 405 408 411 414 417 420 423 426 429 432 435 438 441 444 447 450 453 456 459 462 465 468 471 474 477 480 483 486 489 492 495 498 501 504 507 510 513 516 519 522 525 528 531 534 537 540 543 546 549 552 555 558 561 564 567 570 573 576 579 582 585 588 591 594 597 600 603 606 609 612 615 618 621 624 </DataArray>
<DataArray  type="UInt8"  Name="types"  format="ascii">5 5 5 5 5 5 5 5 5 5 5 5 5 5 5 5 5 5 5 5 5 5 5 5 5 5 5 5 5 5 5 5 5 5 5 5 5 5 5 5 5 5 5 5 5 5 5 5 5 5 5 5 5 5 5 5 5 5 5 5 5 5 5 5 5 5 5 5 5 5 5 5 5 5 5 5 5 5 5 5 5 5 5 5 5 5 5 5 5 5 5 5 5 5 5 5 5 5 5 5 5 5 5 5 5 5 5 5 5 5 5 5 5 5 5 5 5 5 5 5 5 5 5 5 5 5 5 5 5 5 5 5 5 5 5 5 5 5 5 5 5 5 5 5 5 5 5 5 5 5 5 5 5 5 5 5 5 5 5 5 5 5 5 5 5 5 5 5 5 5 5 5 5 5 5 5 5 5 5 5 5 5 5 5 5 5 5 5 5 5 5 5 5 5 5 5 5 5 5 5 5 5 5 5 5 5 5 5 </DataArray>
</Cells>
<PointData  Vectors="Displacement"> 
<DataArray  type="Float64"  Name="Displacement"  NumberOfComponents="3" format="ascii">-4.6025156109479808e-16 6.0407526581643146e-18 0.0000000000000000e+00  0.0000000000000000e+00 0.0000000000000000e+00 0.0000000000000000e+00  0.0000000000000000e+00 0.0000000000000000e+00 0.0000000000000000e+00  -5.9542939440563305e-17 9.6529453307452665e-19 0.0000000000000000e+00  1.7862881832168994e-16 -2.8958835992235800e-18 0.0000000000000000e+00  2.3553641593481169e-04 2.9413969866474803e-04 0.0000000000000000e+00  1.7696245351883784e-04 1.3385910738989912e-04 0.0000000000000000e+00  1.5412040213477147e-04 3.4970482350560150e-06 0.0000000000000000e+00  1.7012926353900419e-04 -1.2546049021244351e-04 0.0000000000000000e+00  2.2751771982794136e-04 -2.8844872644998639e-04 0.0000000000000000e+00  6.0059630398750325e-04 5.3190259908729605e-04 0.0000000000000000e+00  5.5416080090467509e-04 2.5673328745901794e-04 0.0000000000000000e+00  5.3787122854043971e-04 6.8542816610641704e-06 0.0000000000000000e+00  5.5232101614909089e-04 -2.4349470539846547e-04 0.0000000000000000e+00  5.9703026203365901e-04 -5.1949919567043762e-04 0.0000000000000000e+00  1.1297228868661824e-03 7.2190261147989522e-04 0.0000000000000000e+00  1.0926551014768390e-03 3.5372497652314141e-04 0.0000000000000000e+00  1.0793834285995013e-03 9.0281308355599211e-06 0.0000000000000000e+00  1.0906804162289347e-03 -3.3602177140327680e-04 0.0000000000000000e+00  1.1260093511464377e-03 -7.0389366255882804e-04 0.0000000000000000e+00  1.7791932293229984e-03 8.6679684283439350e-04 0.0000000000000000e+00  1.7504756277166450e-03 4.2849199698932478e-04 0.0000000000000000e+00  1.7402993316828163e-03 1.0793260335357797e-05 0.0000000000000000e+00  1.7488411898659939e-03 -4.0718064511026446e-04 0.0000000000000000e+00  1.7757385144263611e-03 -8.4554574102504217e-04 0.0000000000000000e+00  2.5180191649337717e-03 9.7260947799394861e-04 0.0000000000000000e+00  2.4992590134739847e-03 4.8193636869585513e-04 0.0000000000000000e+00  2.4927457919777067e-03 1.1632992482711198e-05 0.0000000000000000e+00  2.4985565300927699e-03 -4.5897967396840711e-04 0.0000000000000000e+00  2.5171161186510476e-03 -9.4959939211154232e-04 0.0000000000000000e+00  3.3281458830274348e-03 1.0393336342800841e-03 0.0000000000000000e+00  3.3148425545096710e-03 5.1598335184677125e-04 0.0000000000000000e+00  3.3098377084554939e-03 1.1693133820095917e-05 0.0000000000000000e+00  3.3136781568410705e-03 -4.9289148635311693e-04 0.0000000000000000e+00  3.3256583516948694e-03 -1.0161509791216615e-03 0.0000000000000000e+00  4.1630582366904961e-03 1.0684567146232713e-03 0.0000000000000000e+00  4.1597701319036912e-03 5.3126130408127947e-04 0.0000000000000000e+00  4.1588066045935394e-03 1.0751390156936346e-05 0.0000000000000000e+00  4.1603653446573739e-03 -5.1006275221361348e-04 0.0000000000000000e+00  4.1644755799389536e-03 -1.0473856768841820e-03 0.0000000000000000e+00  5.0125956856059001e-03 1.0657670628108442e-03 0.0000000000000000e+00  5.0131412357430835e-03 5.2988643819675549e-04 0.0000000000000000e+00  5.0131405738884629e-03 8.8597828126546127e-06 0.0000000000000000e+00  5.0130942755636830e-03 -5.1242182467415057e-04 0.0000000000000000e+00  5.0122668493347159e-03 -1.0478847572681833e-03 0.0000000000000000e+00  5.8405765470718853e-03 1.0359335488548335e-03 0.0000000000000000e+00  5.8479836503099909e-03 5.1457405632509266e-04 0.0000000000000000e+00  5.8509861644444033e-03 6.3321225151552878e-06 0.0000000000000000e+00  5.8491461226819405e-03 -5.0211994034345781e-04 0.0000000000000000e+00  5.8425897996713010e-03 -1.0234152013634951e-03 0.0000000000000000e+00  6.6416455717718918e-03 9.8274821256364624e-04 0.0000000000000000e+00  6.6542134320739209e-03 4.8569510601991384e-04 0.0000000000000000e+00  6.6588583300289652e-03 3.0939490085568336e-06 0.0000000000000000e+00  6.6552780872920674e-03 -4.7965669322259431e-04 0.0000000000000000e+00  6.6438322253825725e-03 -9.7605327804788588e-04 0.0000000000000000e+00  7.3974181893099863e-03 9.0338055872301985e-04 0.0000000000000000e+00  7.4145842054418685e-03 4.4414229721712024e-04 0.0000000000000000e+00  7.4207006360710375e-03 -2.1692297692040951e-07 0.0000000000000000e+00  7.4154314436736205e-03 -4.4463786057024831e-04 0.0000000000000000e+00  7.3987680436180311e-03 -9.0320160852776471e-04 0.0000000000000000e+00  8.0802136950251114e-03 7.9565901312632467e-04 0.0000000000000000e+00  8.1054048402875445e-03 3.8838068776873754e-04 0.0000000000000000e+00  8.1143190935874191e-03 -3.6415070431267280e-06 0.0000000000000000e+00  8.1069059361454903e-03 -3.9567779439761940e-04 0.0000000000000000e+00  8.0835733676801139e-03 -8.0210231833425074e-04 0.0000000000000000e+00  8.6779169019702077e-03 6.5927958376274206e-04 0.0000000000000000e+00  8.7056916859698345e-03 3.1947630108103702e-04 0.0000000000000000e+00  8.7147589281451159e-03 -6.6731047707809269e-06 0.0000000000000000e+00  8.7057356198971900e-03 -3.3275197751433890e-04 0.0000000000000000e+00  8.6777269959848139e-03 -6.7110631252477091e-04 0.0000000000000000e+00  9.1481326063203219e-03 4.9720719411378044e-04 0.0000000000000000e+00  9.1828970499758522e-03 2.3899720500092657e-04 0.0000000000000000e+00  9.1946815957550544e-03 -9.2052340244177263e-06 0.0000000000000000e+00  9.1838262731062433e-03 -2.5732563791499956e-04 0.0000000000000000e+00  9.1500580886835405e-03 -5.1457358291576768e-04 0.0000000000000000e+00  9.4892445592903944e-03 3.1796817098648367e-04 0.0000000000000000e+00  9.5247919061983051e-03 1.4978670991495652e-04 0.0000000000000000e+00  9.5362300585831762e-03 -1.1316143928864766e-05 0.0000000000000000e+00  9.5243328145288696e-03 -1.7233226830630017e-04 0.0000000000000000e+00  9.4881663338380294e-03 -3.3889154429682838e-04 0.0000000000000000e+00  9.6767258837891119e-03 1.2780062850581138e-04 0.0000000000000000e+00  9.7145077956516269e-03 5.5943292779744374e-05 0.0000000000000000e+00  9.7270124453326078e-03 -1.2879173808649015e-05 0.0000000000000000e+00  9.7144025044251948e-03 -8.1672705662241124e-05 0.0000000000000000e+00  9.6761959494629877e-03 -1.5256409299654156e-04 0.0000000000000000e+00  9.7128156710053256e-03 -6.5534698647964242e-05 0.0000000000000000e+00  9.7513720893202885e-03 -4.0583839508624504e-05 0.0000000000000000e+00  9.7641057729135634e-03 -1.4562997564287298e-05 0.0000000000000000e+00  9.7512745655120702e-03 1.1400178884217580e-05 0.0000000000000000e+00  9.7126370024952988e-03 3.7347593283168416e-05 0.0000000000000000e+00  9.5997181658180886e-03 -2.5833834449367923e-04 0.0000000000000000e+00  9.6361967493614649e-03 -1.3670839954021789e-04 0.0000000000000000e+00  9.6482026982636377e-03 -1.6427809467741826e-05 0.0000000000000000e+00  9.6358656165624890e-03 1.0372885126205653e-04 0.0000000000000000e+00  9.5985765969255586e-03 2.2635872505587473e-04 0.0000000000000000e+00  9.3301714234018795e-03 -4.4758588473871531e-04 0.0000000000000000e+00  9.3678694053610390e-03 -2.3142807305283840e-04 0.0000000000000000e+00  9.3808440871755265e-03 -1.9133049974239209e-05 0.0000000000000000e+00  9.3691044845575725e-03 1.9297118214872525e-04 0.0000000000000000e+00  9.3325359552038755e-03 4.0944604037920546e-04 0.0000000000000000e+00  8.9240384565647674e-03 -6.2755127617246896e-04 0.0000000000000000e+00  8.9566962434935796e-03 -3.2220807196673779e-04 0.0000000000000000e+00  8.9677269369401805e-03 -2.2781066063718323e-05 0.0000000000000000e+00  8.9574056547396148e-03 2.7652233214192054e-04 0.0000000000000000e+00  8.9247887739988298e-03 5.8334184956969717e-04 0.0000000000000000e+00  8.3722153176894274e-03 -7.9487787959519099e-04 0.0000000000000000e+00  8.4035572341020943e-03 -4.0608350214221768e-04 0.0000000000000000e+00  8.4148586709778001e-03 -2.7205614026671066e-05 0.0000000000000000e+00  8.4059323050250691e-03 3.5166639947684948e-04 0.0000000000000000e+00  8.3762634173267965e-03 7.4130117823515654e-04 0.0000000000000000e+00  7.7035122478657028e-03 -9.3947473222934978e-04 0.0000000000000000e+00  7.7281526813812061e-03 -4.7987857933820630e-04 0.0000000000000000e+00  7.7369834017423245e-03 -3.2244054634331711e-05 0.0000000000000000e+00  7.7299446380781137e-03 4.1563258524110328e-04 0.0000000000000000e+00  7.7061927379271965e-03 8.7756017538632850e-04 0.0000000000000000e+00  6.9289178329614738e-03 -1.0556568262507758e-03 0.0000000000000000e+00  6.9468485902137427e-03 -5.3903167561171613e-04 0.0000000000000000e+00  6.9537789888577343e-03 -3.7090036214416935e-05 0.0000000000000000e+00  6.9488060298218812e-03 4.6542436237463538e-04 0.0000000000000000e+00  6.9315652566252486e-03 9.8473755224287043e-04 0.0000000000000000e+00  6.0770867956028742e-03 -1.1366652655731089e-03 0.0000000000000000e+00  6.0888432623571733e-03 -5.8217449743050962e-04 0.0000000000000000e+00  6.0945222810539776e-03 -4.2370924857450182e-05 0.0000000000000000e+00  6.0918465991693762e-03 4.9912589026128570e-04 0.0000000000000000e+00  6.0809438354380114e-03 1.0565016898756625e-03 0.0000000000000000e+00  5.1877096592583506e-03 -1.1773656007315462e-03 0.0000000000000000e+00  5.1901976481774038e-03 -6.0933645886725792e-04 0.0000000000000000e+00  5.1944308660272403e-03 -5.1696644810927378e-05 0.0000000000000000e+00  5.1957056157874481e-03 5.1586009147649970e-04 0.0000000000000000e+00  5.1932740419295565e-03 1.0950790498466549e-03 0.0000000000000000e+00  4.2953869909852895e-03 -1.1810621192848069e-03 0.0000000000000000e+00  4.2919506581911458e-03 -6.1632057102058938e-04 0.0000000000000000e+00  4.2621795984509612e-03 -8.7965964314111583e-05 0.0000000000000000e+00  4.2827387182931397e-03 5.2198659126575923e-04 0.0000000000000000e+00  4.2845847187674129e-03 1.1053174741495312e-03 0.0000000000000000e+00  </DataArray> 
</PointData> 
</Piece>
</UnstructuredGrid>
</VTKFile>