<?xml version="1.0"?>
<VTKFile type="UnstructuredGrid"  version="0.1"  >
<UnstructuredGrid>
<Piece  NumberOfPoints="135" NumberOfCells="208">
<Points>
<DataArray  type="Float64"  NumberOfComponents="3"  format="ascii">-0.05 0 0  -0.025 0 0  0 0 0  0.02500000000000001 0 0  0.05 0 0  -0.05 0.03846153846153846 0  -0.025 0.03846153846153846 0  0 0.03846153846153846 0  0.02500000000000001 0.03846153846153846 0  0.05 0.03846153846153846 0  -0.05 0.07692307692307693 0  -0.025 0.07692307692307693 0  0 0.07692307692307693 0  0.02500000000000001 0.07692307692307693 0  0.05 0.07692307692307693 0  -0.05 0.1153846153846154 0  -0.025 0.1153846153846154 0  0 0.1153846153846154 0  0.02500000000000001 0.1153846153846154 0  0.05 0.1153846153846154 0  -0.05 0.1538461538461539 0  -0.025 0.1538461538461539 0  0 0.1538461538461539 0  0.02500000000000001 0.1538461538461539 0  0.05 0.1538461538461539 0  -0.05 0.1923076923076923 0  -0.025 0.1923076923076923 0  0 0.1923076923076923 0  0.02500000000000001 0.1923076923076923 0  0.05 0.1923076923076923 0  -0.05 0.2307692307692308 0  -0.025 0.2307692307692308 0  0 0.2307692307692308 0  0.02500000000000001 0.2307692307692308 0  0.05 0.2307692307692308 0  -0.05 0.2692307692307692 0  -0.025 0.2692307692307692 0  0 0.2692307692307692 0  0.02500000000000001 0.2692307692307692 0  0.05 0.2692307692307692 0  -0.05 0.3076923076923077 0  -0.025 0.3076923076923077 0  0 0.3076923076923077 0  0.02500000000000001 0.3076923076923077 0  0.05 0.3076923076923077 0  -0.05 0.3461538461538461 0  -0.025 0.3461538461538461 0  0 0.3461538461538461 0  0.02500000000000001 0.3461538461538461 0  0.05 0.3461538461538461 0  -0.05 0.3846153846153846 0  -0.025 0.3846153846153846 0  0 0.3846153846153846 0  0.02500000000000001 0.3846153846153846 0  0.05 0.3846153846153846 0  -0.05 0.4230769230769231 0  -0.025 0.4230769230769231 0  0 0.4230769230769231 0  0.02500000000000001 0.4230769230769231 0  0.05 0.4230769230769231 0  -0.05 0.4615384615384616 0  -0.025 0.4615384615384616 0  0 0.4615384615384616 0  0.02500000000000001 0.4615384615384616 0  0.05 0.4615384615384616 0  -0.05 0.5 0  -0.025 0.5 0  0 0.5 0  0.02500000000000001 0.5 0  0.05 0.5 0  -0.05 0.5384615384615384 0  -0.025 0.5384615384615384 0  0 0.5384615384615384 0  0.02500000000000001 0.5384615384615384 0  0.05 0.5384615384615384 0  -0.05 0.5769230769230769 0  -0.025 0.5769230769230769 0  0 0.5769230769230769 0  0.02500000000000001 0.5769230769230769 0  0.05 0.5769230769230769 0  -0.05 0.6153846153846154 0  -0.025 0.6153846153846154 0  0 0.6153846153846154 0  0.02500000000000001 0.6153846153846154 0  0.05 0.6153846153846154 0  -0.05 0.6538461538461539 0  -0.025 0.6538461538461539 0  0 0.6538461538461539 0  0.02500000000000001 0.6538461538461539 0  0.05 0.6538461538461539 0  -0.05 0.6923076923076923 0  -0.025 0.6923076923076923 0  0 0.6923076923076923 0  0.02500000000000001 0.6923076923076923 0  0.05 0.6923076923076923 0  -0.05 0.7307692307692307 0  -0.025 0.7307692307692307 0  0 0.7307692307692307 0  0.02500000000000001 0.7307692307692307 0  0.05 0.7307692307692307 0  -0.05 0.7692307692307693 0  -0.025 0.7692307692307693 0  0 0.7692307692307693 0  0.02500000000000001 0.7692307692307693 0  0.05 0.7692307692307693 0  -0.05 0.8076923076923077 0  -0.025 0.8076923076923077 0  0 0.8076923076923077 0  0.02500000000000001 0.8076923076923077 0  0.05 0.8076923076923077 0  -0.05 0.8461538461538461 0  -0.025 0.8461538461538461 0  0 0.8461538461538461 0  0.02500000000000001 0.8461538461538461 0  0.05 0.8461538461538461 0  -0.05 0.8846153846153846 0  -0.025 0.8846153846153846 0  0 0.8846153846153846 0  0.02500000000000001 0.8846153846153846 0  0.05 0.8846153846153846 0  -0.05 0.9230769230769231 0  -0.025 0.9230769230769231 0  0 0.9230769230769231 0  0.02500000000000001 0.9230769230769231 0  0.05 0.9230769230769231 0  -0.05 0.9615384615384616 0  -0.025 0.9615384615384616 0  0 0.9615384615384616 0  0.02500000000000001 0.9615384615384616 0  0.05 0.9615384615384616 0  -0.05 1 0  -0.025 1 0  0 1 0  0.02500000000000001 1 0  0.05 1 0  </DataArray>
</Points>
<Cells>
<DataArray  type="UInt32"  Name="connectivity"  format="ascii">0 1 6  0 5 6  1 2 7  1 6 7  2 3 8  2 7 8  3 4 9  3 8 9  5 6 11  5 10 11  6 7 12  6 11 12  7 8 13  7 12 13  8 9 14  8 13 14  10 11 16  10 15 16  11 12 17  11 16 17  12 13 18  12 17 18  13 14 19  13 18 19  15 16 21  15 20 21  16 17 22  16 21 22  17 18 23  17 22 23  18 19 24  18 23 24  20 21 26  20 25 26  21 22 27  21 26 27  22 23 28  22 27 28  23 24 29  23 28 29  25 26 31  25 30 31  26 27 32  26 31 32  27 28 33  27 32 33  28 29 34  28 33 34  30 31 36  30 35 36  31 32 37  31 36 37  32 33 38  32 37 38  33 34 39  33 38 39  35 36 41  35 40 41  36 37 42  36 41 42  37 38 43  37 42 43  38 39 44  38 43 44  40 41 46  40 45 46  41 42 47  41 46 47  42 43 48  42 47 48  43 44 49  43 48 49  45 46 51  45 50 51  46 47 52  46 51 52  47 48 53  47 52 53  48 49 54  48 53 54  50 51 56  50 55 56  51 52 57  51 56 57  52 53 58  52 57 58  53 54 59  53 58 59  55 56 61  55 60 61  56 57 62  56 61 62  57 58 63  57 62 63  58 59 64  58 63 64  60 61 66  60 65 66  61 62 67  61 66 67  62 63 68  62 67 68  63 64 69  63 68 69  65 66 71  65 70 71  66 67 72  66 71 72  67 68 73  67 72 73  68 69 74  68 73 74  70 71 76  70 75 76  71 72 77  71 76 77  72 73 78  72 77 78  73 74 79  73 78 79  75 76 81  75 80 81  76 77 82  76 81 82  77 78 83  77 82 83  78 79 84  78 83 84  80 81 86  80 85 86  81 82 87  81 86 87  82 83 88  82 87 88  83 84 89  83 88 89  85 86 91  85 90 91  86 87 92  86 91 92  87 88 93  87 92 93  88 89 94  88 93 94  90 91 96  90 95 96  91 92 97  91 96 97  92 93 98  92 97 98  93 94 99  93 98 99  95 96 101  95 100 101  96 97 102  96 101 102  97 98 103  97 102 103  98 99 104  98 103 104  100 101 106  100 105 106  101 102 107  101 106 107  102 103 108  102 107 108  103 104 109  103 108 109  105 106 111  105 110 111  106 107 112  106 111 112  107 108 113  107 112 113  108 109 114  108 113 114  110 111 116  110 115 116  111 112 117  111 116 117  112 113 118  112 117 118  113 114 119  113 118 119  115 116 121  115 120 121  116 117 122  116 121 122  117 118 123  117 122 123  118 119 124  118 123 124  120 121 126  120 125 126  121 122 127  121 126 127  122 123 128  122 127 128  123 124 129  123 128 129  125 126 131  125 130 131  126 127 132  126 131 132  127 128 133  127 132 133  128 129 134  128 133 134  </DataArray>
<DataArray  type="UInt32"  Name="offsets"  format="ascii">3 6 9 12 15 18 21 24 27 30 33 36 39 42 45 48 51 54 57 60 63 66 69 72 75 78 81 84 87 90 93 96 99 102 105 108 111 114 117 120 123 126 129 132 135 138 141 144 147 150 153 156 159 162 165 168 171 174 177 180 183 186 189 192 195 198 201 204 207 210 213 216 219 222 225 228 231 234 237 240 243 246 249 252 255 258 261 264 267 270 273 276 279 282 285 288 291 294 297 300 303 306 309 312 315 318 321 324 327 330 333 336 339 342 345 348 351 354 357 360 363 366 369 372 375 378 381 384 387 390 393 396 399 402 405 408 411 414 417 420 423 426 429 432 435 438 441 444 447 450 453 456 459 462 465 468 471 474 477 480 483 486 489 492 495 498 501 504 507 510 513 516 519 522 525 528 531 534 537 540 543 546 549 552 555 558 561 564 567 570 573 576 579 582 585 588 591 594 597 600 603 606 609 612 615 618 621 624 </DataArray>
<DataArray  type="UInt8"  Name="types"  format="ascii">5 5 5 5 5 5 5 5 5 5 5 5 5 5 5 5 5 5 5 5 5 5 5 5 5 5 5 5 5 5 5 5 5 5 5 5 5 5 5 5 5 5 5 5 5 5 5 5 5 5 5 5 5 5 5 5 5 5 5 5 5 5 5 5 5 5 5 5 5 5 5 5 5 5 5 5 5 5 5 5 5 5 5 5 5 5 5 5 5 5 5 5 5 5 5 5 5 5 5 5 5 5 5 5 5 5 5 5 5 5 5 5 5 5 5 5 5 5 5 5 5 5 5 5 5 5 5 5 5 5 5 5 5 5 5 5 5 5 5 5 5 5 5 5 5 5 5 5 5 5 5 5 5 5 5 5 5 5 5 5 5 5 5 5 5 5 5 5 5 5 5 5 5 5 5 5 5 5 5 5 5 5 5 5 5 5 5 5 5 5 5 5 5 5 5 5 5 5 5 5 5 5 5 5 5 5 5 5 </DataArray>
</Cells>
<PointData  Vectors="Displacement"> 
<DataArray  type="Float64"  Name="Displacement"  NumberOfComponents="3" format="ascii">-4.6637367021947930e-16 1.8439314410992428e-18 0.0000000000000000e+00  0.0000000000000000e+00 0.0000000000000000e+00 0.0000000000000000e+00  0.0000000000000000e+00 0.0000000000000000e+00 0.0000000000000000e+00  -6.0325261214591191e-17 1.2217057166759713e-18 0.0000000000000000e+00  1.8097578364377360e-16 -3.6651171500279143e-18 0.0000000000000000e+00  7.4523414221004168e-05 1.1903580271993646e-04 0.0000000000000000e+00  4.7288839541027035e-05 5.6278895513659557e-05 0.0000000000000000e+00  3.8185990328654634e-05 -4.1186659940334783e-06 0.0000000000000000e+00  4.8037356445466467e-05 -6.4634454505244684e-05 0.0000000000000000e+00  7.7448170135985196e-05 -1.3117595478259267e-04 0.0000000000000000e+00  2.1811940256296643e-04 2.3965042116478330e-04 0.0000000000000000e+00  1.9339987524983194e-04 1.1413930427113972e-04 0.0000000000000000e+00  1.8680039962082416e-04 -9.7637742992865035e-06 0.0000000000000000e+00  1.9752659820291267e-04 -1.3463997151663427e-04 0.0000000000000000e+00  2.2541633170455088e-04 -2.6103634590979357e-04 0.0000000000000000e+00  4.6413034948032618e-04 3.5838679373845634e-04 0.0000000000000000e+00  4.3965120957498773e-04 1.6986655590200047e-04 0.0000000000000000e+00  4.3304815904347653e-04 -1.5428175880928754e-05 0.0000000000000000e+00  4.4292617048845940e-04 -2.0119529149647869e-04 0.0000000000000000e+00  4.6944264946122821e-04 -3.9009996328368408e-04 0.0000000000000000e+00  8.0292360540041717e-04 4.6933754604210320e-04 0.0000000000000000e+00  7.8004556250974185e-04 2.2282362367205153e-04 0.0000000000000000e+00  7.7397642044165730e-04 -2.1325759367540640e-05 0.0000000000000000e+00  7.8432534602521390e-04 -2.6592420228672330e-04 0.0000000000000000e+00  8.1079834166720196e-04 -5.1368145839793277e-04 0.0000000000000000e+00  1.2266133802946268e-03 5.7373666334415319e-04 0.0000000000000000e+00  1.2058934595293046e-03 2.7146158482081636e-04 0.0000000000000000e+00  1.2012874562657570e-03 -2.8788400868641348e-05 0.0000000000000000e+00  1.2112993040762896e-03 -3.2910385452332658e-04 0.0000000000000000e+00  1.2359597519172535e-03 -6.3120145158395823e-04 0.0000000000000000e+00  1.7370168427631916e-03 6.7318071290479304e-04 0.0000000000000000e+00  1.7156607849537178e-03 3.1764211122301315e-04 0.0000000000000000e+00  1.7101025825321887e-03 -3.6627623235496584e-05 0.0000000000000000e+00  1.7200724803663134e-03 -3.9101693466709578e-04 0.0000000000000000e+00  1.7454026750521857e-03 -7.4697803295549015e-04 0.0000000000000000e+00  2.3224739396302896e-03 7.6919513979991521e-04 0.0000000000000000e+00  2.3035683958280593e-03 3.6135014269748802e-04 0.0000000000000000e+00  2.3000021960790169e-03 -4.5382091398858317e-05 0.0000000000000000e+00  2.3101418373757373e-03 -4.5273013714557716e-04 0.0000000000000000e+00  2.3344771434445377e-03 -8.6174913460930827e-04 0.0000000000000000e+00  2.9955055223690845e-03 8.6456809952869293e-04 0.0000000000000000e+00  2.9757091028408266e-03 4.0323077054960749e-04 0.0000000000000000e+00  2.9718779813117683e-03 -5.5428043543386255e-05 0.0000000000000000e+00  2.9824628754983196e-03 -5.1408638189975647e-04 0.0000000000000000e+00  3.0070524108707195e-03 -9.7524005408709856e-04 0.0000000000000000e+00  3.7467017578731989e-03 9.5548999969216066e-04 0.0000000000000000e+00  3.7289852292413887e-03 4.4323718019013167e-04 0.0000000000000000e+00  3.7255650146099874e-03 -6.5453591332467975e-05 0.0000000000000000e+00  3.7353967325022787e-03 -5.7407921741902648e-04 0.0000000000000000e+00  3.7589086356330185e-03 -1.0858527122943940e-03 0.0000000000000000e+00  4.5769994802614105e-03 1.0400440846212440e-03 0.0000000000000000e+00  4.5604731773965061e-03 4.8010971482267701e-04 0.0000000000000000e+00  4.5575573473840870e-03 -7.5243026962347703e-05 0.0000000000000000e+00  4.5667676476883858e-03 -6.3060734275103723e-04 0.0000000000000000e+00  4.5883483156507815e-03 -1.1904647302985740e-03 0.0000000000000000e+00  5.4780834849137948e-03 1.1158475214668986e-03 0.0000000000000000e+00  5.4628333771033696e-03 5.1323736864987868e-04 0.0000000000000000e+00  5.4599190709012906e-03 -8.5150545630540583e-05 0.0000000000000000e+00  5.4690434140043705e-03 -6.8363453462580177e-04 0.0000000000000000e+00  5.4898274727174165e-03 -1.2860973582414343e-03 0.0000000000000000e+00  6.4371308199031195e-03 1.1829722339540855e-03 0.0000000000000000e+00  6.4242768449677750e-03 5.4251500701449937e-04 0.0000000000000000e+00  6.4226606947981411e-03 -9.4953591921325713e-05 0.0000000000000000e+00  6.4310342667625768e-03 -7.3262701746472391e-04 0.0000000000000000e+00  6.4492367598015009e-03 -1.3729916927458425e-03 0.0000000000000000e+00  7.4543846747920032e-03 1.2462994786888104e-03 0.0000000000000000e+00  7.4401170544135765e-03 5.7032901365908619e-04 0.0000000000000000e+00  7.4376260829481710e-03 -1.0444873345827040e-04 0.0000000000000000e+00  7.4462091984229591e-03 -7.7895921638732762e-04 0.0000000000000000e+00  7.4647645676341814e-03 -1.4539419765436843e-03 0.0000000000000000e+00  8.5188363197551947e-03 1.3102875770145365e-03 0.0000000000000000e+00  8.5057897101043622e-03 5.9835421309967804e-04 0.0000000000000000e+00  8.5037666824833314e-03 -1.1304877207209601e-04 0.0000000000000000e+00  8.5113935374404957e-03 -8.2413140551394629e-04 0.0000000000000000e+00  8.5289321102339066e-03 -1.5347163252842158e-03 0.0000000000000000e+00  9.6447569594487418e-03 1.3773068403033248e-03 0.0000000000000000e+00  9.6298596073053286e-03 6.2796415799964110e-04 0.0000000000000000e+00  9.6266378775912952e-03 -1.2039723280195846e-04 0.0000000000000000e+00  9.6339330030389241e-03 -8.6842732521361576e-04 0.0000000000000000e+00  9.6517824565682288e-03 -1.6166495946933587e-03 0.0000000000000000e+00  1.0825870554563202e-02 1.4452625328311912e-03 0.0000000000000000e+00  1.0811730145368060e-02 6.5837715197830887e-04 0.0000000000000000e+00  1.0808648636633755e-02 -1.2680124533351761e-04 0.0000000000000000e+00  1.0815634562392238e-02 -9.1235671491867018e-04 0.0000000000000000e+00  1.0833428995807495e-02 -1.6992744148821781e-03 0.0000000000000000e+00  1.2068146396947445e-02 1.5116165268664844e-03 0.0000000000000000e+00  1.2055274184809802e-02 6.8732119492151151e-04 0.0000000000000000e+00  1.2053370458919816e-02 -1.3316873521204646e-04 0.0000000000000000e+00  1.2060325304553213e-02 -9.5411647270298838e-04 0.0000000000000000e+00  1.2076435576361257e-02 -1.7788948429158821e-03 0.0000000000000000e+00  1.3369103236025200e-02 1.5714005746104869e-03 0.0000000000000000e+00  1.3357052944210780e-02 7.1304899801846158e-04 0.0000000000000000e+00  1.3355025293517212e-02 -1.4004398228699964e-04 0.0000000000000000e+00  1.3361818264803369e-02 -9.9303475504494373e-04 0.0000000000000000e+00  1.3377355439836600e-02 -1.8501985605983520e-03 0.0000000000000000e+00  1.4716466367136116e-02 1.6210619975504490e-03 0.0000000000000000e+00  1.4708225848890130e-02 7.3370271811528168e-04 0.0000000000000000e+00  1.4707514706914903e-02 -1.4660713809262066e-04 0.0000000000000000e+00  1.4712639783880144e-02 -1.0270958838927305e-03 0.0000000000000000e+00  1.4724855783840331e-02 -1.9143515139979526e-03 0.0000000000000000e+00  1.6111757933640343e-02 1.6581788877913124e-03 0.0000000000000000e+00  1.6104853237796118e-02 7.4771655854793983e-04 0.0000000000000000e+00  1.6104454499091498e-02 -1.5383866930332489e-04 0.0000000000000000e+00  1.6109690512893949e-02 -1.0554683309369048e-03 0.0000000000000000e+00  1.6120265315289893e-02 -1.9648761875823016e-03 0.0000000000000000e+00  1.7530412936615870e-02 1.6778169331307994e-03 0.0000000000000000e+00  1.7527828958090706e-02 7.5436853490942822e-04 0.0000000000000000e+00  1.7528540216863380e-02 -1.6132217061363123e-04 0.0000000000000000e+00  1.7531960292346653e-02 -1.0767489337818548e-03 0.0000000000000000e+00  1.7538348837086829e-02 -1.9988880645575653e-03 0.0000000000000000e+00  1.8962865417317908e-02 1.6819109533940055e-03 0.0000000000000000e+00  1.8962763881141976e-02 7.5376989761508290e-04 0.0000000000000000e+00  1.8964868441048516e-02 -1.6843682021419368e-04 0.0000000000000000e+00  1.8968059232404501e-02 -1.0897570467768398e-03 0.0000000000000000e+00  1.8971924517962778e-02 -2.0170891630160309e-03 0.0000000000000000e+00  2.0395527910540653e-02 1.6747939430905529e-03 0.0000000000000000e+00  2.0396892271777670e-02 7.4724465068492553e-04 0.0000000000000000e+00  2.0399298981954261e-02 -1.7531895301089868e-04 0.0000000000000000e+00  2.0402241678318264e-02 -1.0972139762555086e-03 0.0000000000000000e+00  2.0404775294619138e-02 -2.0223797315869077e-03 0.0000000000000000e+00  2.1817438553565386e-02 1.6592533599462322e-03 0.0000000000000000e+00  2.1820733643293549e-02 7.3730788398689733e-04 0.0000000000000000e+00  2.1824657207905752e-02 -1.8274307374258582e-04 0.0000000000000000e+00  2.1826931549168312e-02 -1.1009907870904840e-03 0.0000000000000000e+00  2.1827187499227643e-02 -2.0197155756651892e-03 0.0000000000000000e+00  2.3227873861354324e-02 1.6448623870148654e-03 0.0000000000000000e+00  2.3228689363666854e-02 7.2598386852121028e-04 0.0000000000000000e+00  2.3232415563261631e-02 -1.9335810033272902e-04 0.0000000000000000e+00  2.3236515504012359e-02 -1.1028660340696910e-03 0.0000000000000000e+00  2.3238159183640320e-02 -2.0103597042956866e-03 0.0000000000000000e+00  2.4631199765844124e-02 1.6434712973654314e-03 0.0000000000000000e+00  2.4626652837855541e-02 7.2303421391771135e-04 0.0000000000000000e+00  2.4597814545906059e-02 -2.2868781791083521e-04 0.0000000000000000e+00  2.4619116761864148e-02 -1.1024758949302331e-03 0.0000000000000000e+00  2.4621950501490290e-02 -2.0040986718155534e-03 0.0000000000000000e+00  </DataArray> 
</PointData> 
</Piece>
</UnstructuredGrid>
</VTKFile>