<?xml version="1.0"?>
<VTKFile type="UnstructuredGrid"  version="0.1"  >
<UnstructuredGrid>
<Piece  NumberOfPoints="135" NumberOfCells="208">
<Points>
<DataArray  type="Float64"  NumberOfComponents="3"  format="ascii">-0.05 0 0  -0.025 0 0  0 0 0  0.02500000000000001 0 0  0.05 0 0  -0.05 0.03846153846153846 0  -0.025 0.03846153846153846 0  0 0.03846153846153846 0  0.02500000000000001 0.03846153846153846 0  0.05 0.03846153846153846 0  -0.05 0.07692307692307693 0  -0.025 0.07692307692307693 0  0 0.07692307692307693 0  0.02500000000000001 0.07692307692307693 0  0.05 0.07692307692307693 0  -0.05 0.1153846153846154 0  -0.025 0.1153846153846154 0  0 0.1153846153846154 0  0.02500000000000001 0.1153846153846154 0  0.05 0.1153846153846154 0  -0.05 0.1538461538461539 0  -0.025 0.1538461538461539 0  0 0.1538461538461539 0  0.02500000000000001 0.1538461538461539 0  0.05 0.1538461538461539 0  -0.05 0.1923076923076923 0  -0.025 0.1923076923076923 0  0 0.1923076923076923 0  0.02500000000000001 0.1923076923076923 0  0.05 0.1923076923076923 0  -0.05 0.2307692307692308 0  -0.025 0.2307692307692308 0  0 0.2307692307692308 0  0.02500000000000001 0.2307692307692308 0  0.05 0.2307692307692308 0  -0.05 0.2692307692307692 0  -0.025 0.2692307692307692 0  0 0.2692307692307692 0  0.02500000000000001 0.2692307692307692 0  0.05 0.2692307692307692 0  -0.05 0.3076923076923077 0  -0.025 0.3076923076923077 0  0 0.3076923076923077 0  0.02500000000000001 0.3076923076923077 0  0.05 0.3076923076923077 0  -0.05 0.3461538461538461 0  -0.025 0.3461538461538461 0  0 0.3461538461538461 0  0.02500000000000001 0.3461538461538461 0  0.05 0.3461538461538461 0  -0.05 0.3846153846153846 0  -0.025 0.3846153846153846 0  0 0.3846153846153846 0  0.02500000000000001 0.3846153846153846 0  0.05 0.3846153846153846 0  -0.05 0.4230769230769231 0  -0.025 0.4230769230769231 0  0 0.4230769230769231 0  0.02500000000000001 0.4230769230769231 0  0.05 0.4230769230769231 0  -0.05 0.4615384615384616 0  -0.025 0.4615384615384616 0  0 0.4615384615384616 0  0.02500000000000001 0.4615384615384616 0  0.05 0.4615384615384616 0  -0.05 0.5 0  -0.025 0.5 0  0 0.5 0  0.02500000000000001 0.5 0  0.05 0.5 0  -0.05 0.5384615384615384 0  -0.025 0.5384615384615384 0  0 0.5384615384615384 0  0.02500000000000001 0.5384615384615384 0  0.05 0.5384615384615384 0  -0.05 0.5769230769230769 0  -0.025 0.5769230769230769 0  0 0.5769230769230769 0  0.02500000000000001 0.5769230769230769 0  0.05 0.5769230769230769 0  -0.05 0.6153846153846154 0  -0.025 0.6153846153846154 0  0 0.6153846153846154 0  0.02500000000000001 0.6153846153846154 0  0.05 0.6153846153846154 0  -0.05 0.6538461538461539 0  -0.025 0.6538461538461539 0  0 0.6538461538461539 0  0.02500000000000001 0.6538461538461539 0  0.05 0.6538461538461539 0  -0.05 0.6923076923076923 0  -0.025 0.6923076923076923 0  0 0.6923076923076923 0  0.02500000000000001 0.6923076923076923 0  0.05 0.6923076923076923 0  -0.05 0.7307692307692307 0  -0.025 0.7307692307692307 0  0 0.7307692307692307 0  0.02500000000000001 0.7307692307692307 0  0.05 0.7307692307692307 0  -0.05 0.7692307692307693 0  -0.025 0.7692307692307693 0  0 0.7692307692307693 0  0.02500000000000001 0.7692307692307693 0  0.05 0.7692307692307693 0  -0.05 0.8076923076923077 0  -0.025 0.8076923076923077 0  0 0.8076923076923077 0  0.02500000000000001 0.8076923076923077 0  0.05 0.8076923076923077 0  -0.05 0.8461538461538461 0  -0.025 0.8461538461538461 0  0 0.8461538461538461 0  0.02500000000000001 0.8461538461538461 0  0.05 0.8461538461538461 0  -0.05 0.8846153846153846 0  -0.025 0.8846153846153846 0  0 0.8846153846153846 0  0.02500000000000001 0.8846153846153846 0  0.05 0.8846153846153846 0  -0.05 0.9230769230769231 0  -0.025 0.9230769230769231 0  0 0.9230769230769231 0  0.02500000000000001 0.9230769230769231 0  0.05 0.9230769230769231 0  -0.05 0.9615384615384616 0  -0.025 0.9615384615384616 0  0 0.9615384615384616 0  0.02500000000000001 0.9615384615384616 0  0.05 0.9615384615384616 0  -0.05 1 0  -0.025 1 0  0 1 0  0.02500000000000001 1 0  0.05 1 0  </DataArray>
</Points>
<Cells>
<DataArray  type="UInt32"  Name="connectivity"  format="ascii">0 1 6  0 5 6  1 2 7  1 6 7  2 3 8  2 7 8  3 4 9  3 8 9  5 6 11  5 10 11  6 7 12  6 11 12  7 8 13  7 12 13  8 9 14  8 13 14  10 11 16  10 15 16  11 12 17  11 16 17  12 13 18  12 17 18  13 14 19  13 18 19  15 16 21  15 20 21  16 17 22  16 21 22  17 18 23  17 22 23  18 19 24  18 23 24  20 21 26  20 25 26  21 22 27  21 26 27  22 23 28  22 27 28  23 24 29  23 28 29  25 26 31  25 30 31  26 27 32  26 31 32  27 28 33  27 32 33  28 29 34  28 33 34  30 31 36  30 35 36  31 32 37  31 36 37  32 33 38  32 37 38  33 34 39  33 38 39  35 36 41  35 40 41  36 37 42  36 41 42  37 38 43  37 42 43  38 39 44  38 43 44  40 41 46  40 45 46  41 42 47  41 46 47  42 43 48  42 47 48  43 44 49  43 48 49  45 46 51  45 50 51  46 47 52  46 51 52  47 48 53  47 52 53  48 49 54  48 53 54  50 51 56  50 55 56  51 52 57  51 56 57  52 53 58  52 57 58  53 54 59  53 58 59  55 56 61  55 60 61  56 57 62  56 61 62  57 58 63  57 62 63  58 59 64  58 63 64  60 61 66  60 65 66  61 62 67  61 66 67  62 63 68  62 67 68  63 64 69  63 68 69  65 66 71  65 70 71  66 67 72  66 71 72  67 68 73  67 72 73  68 69 74  68 73 74  70 71 76  70 75 76  71 72 77  71 76 77  72 73 78  72 77 78  73 74 79  73 78 79  75 76 81  75 80 81  76 77 82  76 81 82  77 78 83  77 82 83  78 79 84  78 83 84  80 81 86  80 85 86  81 82 87  81 86 87  82 83 88  82 87 88  83 84 89  83 88 89  85 86 91  85 90 91  86 87 92  86 91 92  87 88 93  87 92 93  88 89 94  88 93 94  90 91 96  90 95 96  91 92 97  91 96 97  92 93 98  92 97 98  93 94 99  93 98 99  95 96 101  95 100 101  96 97 102  96 101 102  97 98 103  97 102 103  98 99 104  98 103 104  100 101 106  100 105 106  101 102 107  101 106 107  102 103 108  102 107 108  103 104 109  103 108 109  105 106 111  105 110 111  106 107 112  106 111 112  107 108 113  107 112 113  108 109 114  108 113 114  110 111 116  110 115 116  111 112 117  111 116 117  112 113 118  112 117 118  113 114 119  113 118 119  115 116 121  115 120 121  116 117 122  116 121 122  117 118 123  117 122 123  118 119 124  118 123 124  120 121 126  120 125 126  121 122 127  121 126 127  122 123 128  122 127 128  123 124 129  123 128 129  125 126 131  125 130 131  126 127 132  126 131 132  127 128 133  127 132 133  128 129 134  128 133 134  </DataArray>
<DataArray  type="UInt32"  Name="offsets"  format="ascii">3 6 9 12 15 18 21 24 27 30 33 36 39 42 45 48 51 54 57 60 63 66 69 72 75 78 81 84 87 90 93 96 99 102 105 108 111 114 117 120 123 126 129 132 135 138 141 144 147 150 153 156 159 162 165 168 171 174 177 180 183 186 189 192 195 198 201 204 207 210 213 216 219 222 225 228 231 234 237 240 243 246 249 252 255 258 261 264 267 270 273 276 279 282 285 288 291 294 297 300 303 306 309 312 315 318 321 324 327 330 333 336 339 342 345 348 351 354 357 360 363 366 369 372 375 378 381 384 387 390 393 396 399 402 405 408 411 414 417 420 423 426 429 432 435 438 441 444 447 450 453 456 459 462 465 468 471 474 477 480 483 486 489 492 495 498 501 504 507 510 513 516 519 522 525 528 531 534 537 540 543 546 549 552 555 558 561 564 567 570 573 576 579 582 585 588 591 594 597 600 603 606 609 612 615 618 621 624 </DataArray>
<DataArray  type="UInt8"  Name="types"  format="ascii">5 5 5 5 5 5 5 5 5 5 5 5 5 5 5 5 5 5 5 5 5 5 5 5 5 5 5 5 5 5 5 5 5 5 5 5 5 5 5 5 5 5 5 5 5 5 5 5 5 5 5 5 5 5 5 5 5 5 5 5 5 5 5 5 5 5 5 5 5 5 5 5 5 5 5 5 5 5 5 5 5 5 5 5 5 5 5 5 5 5 5 5 5 5 5 5 5 5 5 5 5 5 5 5 5 5 5 5 5 5 5 5 5 5 5 5 5 5 5 5 5 5 5 5 5 5 5 5 5 5 5 5 5 5 5 5 5 5 5 5 5 5 5 5 5 5 5 5 5 5 5 5 5 5 5 5 5 5 5 5 5 5 5 5 5 5 5 5 5 5 5 5 5 5 5 5 5 5 5 5 5 5 5 5 5 5 5 5 5 5 5 5 5 5 5 5 5 5 5 5 5 5 5 5 5 5 5 5 </DataArray>
</Cells>
<PointData  Vectors="Displacement"> 
<DataArray  type="Float64"  Name="Displacement"  NumberOfComponents="3" format="ascii">-4.5797210638495797e-16 5.2442854358855880e-18 0.0000000000000000e+00  0.0000000000000000e+00 0.0000000000000000e+00 0.0000000000000000e+00  0.0000000000000000e+00 0.0000000000000000e+00 0.0000000000000000e+00  -6.0563496985754669e-17 9.9583693354015698e-19 0.0000000000000000e+00  1.8169049095726403e-16 -2.9875108006204711e-18 0.0000000000000000e+00  3.2606217127666284e-04 4.3049895221686268e-04 0.0000000000000000e+00  2.4159801659045320e-04 1.9420814203715672e-04 0.0000000000000000e+00  2.1149477884486621e-04 -6.6849582582371738e-06 0.0000000000000000e+00  2.4098890695911689e-04 -2.0680028445998480e-04 0.0000000000000000e+00  3.3286470623855412e-04 -4.5094761029786372e-04 0.0000000000000000e+00  8.6801950244859698e-04 7.9854029014255715e-04 0.0000000000000000e+00  7.9579027109564040e-04 3.7767096809931169e-04 0.0000000000000000e+00  7.7339106310034744e-04 -1.5923914490623757e-05 0.0000000000000000e+00  8.0240230490235772e-04 -4.0988561045590671e-04 0.0000000000000000e+00  8.7996352398501140e-04 -8.3220345570826995e-04 0.0000000000000000e+00  1.6750628666203093e-03 1.1170665766578780e-03 0.0000000000000000e+00  1.6129655310275102e-03 5.3450152104202381e-04 0.0000000000000000e+00  1.5935482155593195e-03 -2.4932913588421918e-05 0.0000000000000000e+00  1.6184659982839042e-03 -5.8474498958420418e-04 0.0000000000000000e+00  1.6862439593272431e-03 -1.1674218266082841e-03 0.0000000000000000e+00  2.7089522243646229e-03 1.3912798710598389e-03 0.0000000000000000e+00  2.6554912906852513e-03 6.6854269689060300e-04 0.0000000000000000e+00  2.6398314669441657e-03 -3.3810527893585476e-05 0.0000000000000000e+00  2.6620901859645157e-03 -7.3627780916216807e-04 0.0000000000000000e+00  2.7208367688976933e-03 -1.4595637437377078e-03 0.0000000000000000e+00  3.9395460093166476e-03 1.6274330955541748e-03 0.0000000000000000e+00  3.8944824767664270e-03 7.8288364572852789e-04 0.0000000000000000e+00  3.8811589505359906e-03 -4.3398101593592792e-05 0.0000000000000000e+00  3.9008456951196858e-03 -8.6904306792261481e-04 0.0000000000000000e+00  3.9521212918473651e-03 -1.7124409236362102e-03 0.0000000000000000e+00  5.3448019521968359e-03 1.8286754361381491e-03 0.0000000000000000e+00  5.3052988650548029e-03 8.8001775146581956e-04 0.0000000000000000e+00  5.2935621255355983e-03 -5.1479874111559833e-05 0.0000000000000000e+00  5.3099714773063083e-03 -9.8325170283375700e-04 0.0000000000000000e+00  5.3538738464656175e-03 -1.9315615119544973e-03 0.0000000000000000e+00  6.8914288180218150e-03 1.9984347828747389e-03 0.0000000000000000e+00  6.8592282333765926e-03 9.6234408204928649e-04 0.0000000000000000e+00  6.8501015593648556e-03 -5.9406011901211550e-05 0.0000000000000000e+00  6.8649867196103193e-03 -1.0808059301432231e-03 0.0000000000000000e+00  6.9023123169355679e-03 -2.1169961128396416e-03 0.0000000000000000e+00  8.5633283444518041e-03 2.1421675659425588e-03 0.0000000000000000e+00  8.5353244370051651e-03 1.0309433997729043e-03 0.0000000000000000e+00  8.5273782364878349e-03 -6.6487425079814612e-05 0.0000000000000000e+00  8.5397760965001748e-03 -1.1640867513754397e-03 0.0000000000000000e+00  8.5716509075933808e-03 -2.2743706464188641e-03 0.0000000000000000e+00  1.0338113989983687e-02 2.2609495745542518e-03 0.0000000000000000e+00  1.0315752522250471e-02 1.0878073452971560e-03 0.0000000000000000e+00  1.0309663374088451e-02 -7.2623153548652660e-05 0.0000000000000000e+00  1.0320054711585567e-02 -1.2327875159194900e-03 0.0000000000000000e+00  1.0345937029206692e-02 -2.4058520199203089e-03 0.0000000000000000e+00  1.2198357326251127e-02 2.3562278078216882e-03 0.0000000000000000e+00  1.2180827872851756e-02 1.1330018736785241e-03 0.0000000000000000e+00  1.2176038480569404e-02 -7.8066409023719999e-05 0.0000000000000000e+00  1.2184615183349389e-02 -1.2890050499740251e-03 0.0000000000000000e+00  1.2205629369345598e-02 -2.5114573042329304e-03 0.0000000000000000e+00  1.4127632871507881e-02 2.4284687234724591e-03 0.0000000000000000e+00  1.4114461617803111e-02 1.1666153033797286e-03 0.0000000000000000e+00  1.4111282124123718e-02 -8.2371556015800934e-05 0.0000000000000000e+00  1.4117526603924893e-02 -1.3314886669160511e-03 0.0000000000000000e+00  1.4132836621688500e-02 -2.5931107744375181e-03 0.0000000000000000e+00  1.6105513321465054e-02 2.4767817921898007e-03 0.0000000000000000e+00  1.6098410688580787e-02 1.1889268663701409e-03 0.0000000000000000e+00  1.6096879632860786e-02 -8.6310730473753133e-05 0.0000000000000000e+00  1.6101711495097978e-02 -1.3610627054407886e-03 0.0000000000000000e+00  1.6111720823769129e-02 -2.6482607591146977e-03 0.0000000000000000e+00  1.8115606891842662e-02 2.5004811069339081e-03 0.0000000000000000e+00  1.8111842935418718e-02 1.1995466892320880e-03 0.0000000000000000e+00  1.8111212385871666e-02 -8.8882775188736912e-05 0.0000000000000000e+00  1.8113530974916036e-02 -1.3774754613854903e-03 0.0000000000000000e+00  1.8118310386717216e-02 -2.6774399618945031e-03 0.0000000000000000e+00  2.0132614941297349e-02 2.5015687077057378e-03 0.0000000000000000e+00  2.0134840204643695e-02 1.1994559183685968e-03 0.0000000000000000e+00  2.0136122294825313e-02 -9.0959664143367723e-05 0.0000000000000000e+00  2.0136947656781493e-02 -1.3809809651720688e-03 0.0000000000000000e+00  2.0136470380965093e-02 -2.6830472055474363e-03 0.0000000000000000e+00  2.2145005135507764e-02 2.4797210801095343e-03 0.0000000000000000e+00  2.2150952734725393e-02 1.1878927424739075e-03 0.0000000000000000e+00  2.2153208655931164e-02 -9.2686854003964822e-05 0.0000000000000000e+00  2.2152376060208048e-02 -1.3736374780616081e-03 0.0000000000000000e+00  2.2147785303625288e-02 -2.6652296697941068e-03 0.0000000000000000e+00  2.4129221763182489e-02 2.4348741779681728e-03 0.0000000000000000e+00  2.4140146356225616e-02 1.1651623072536439e-03 0.0000000000000000e+00  2.4144589941374375e-02 -9.4987534568559046e-05 0.0000000000000000e+00  2.4142741561999893e-02 -1.3554790522659961e-03 0.0000000000000000e+00  2.4133706341507410e-02 -2.6262894671002378e-03 0.0000000000000000e+00  2.6069931202057108e-02 2.3697623572158139e-03 0.0000000000000000e+00  2.6085070206002675e-02 1.1317483467076889e-03 0.0000000000000000e+00  2.6091039141356461e-02 -9.8752014873037148e-05 0.0000000000000000e+00  2.6088857729008434e-02 -1.3294846534470271e-03 0.0000000000000000e+00  2.6076833930780662e-02 -2.5676403628273753e-03 0.0000000000000000e+00  2.7953115752330979e-02 2.2876044500888563e-03 0.0000000000000000e+00  2.7970037265689154e-02 1.0899426313640864e-03 0.0000000000000000e+00  2.7976809392361371e-02 -1.0297489091893381e-04 0.0000000000000000e+00  2.7973530075457730e-02 -1.2961481225287298e-03 0.0000000000000000e+00  2.7958725253733191e-02 -2.4931634870776868e-03 0.0000000000000000e+00  2.9761382682368213e-02 2.1954862910168512e-03 0.0000000000000000e+00  2.9780422096895218e-02 1.0440182451374139e-03 0.0000000000000000e+00  2.9787612764565690e-02 -1.0754026102928130e-04 0.0000000000000000e+00  2.9784171623958879e-02 -1.2587247265433556e-03 0.0000000000000000e+00  2.9768202324855605e-02 -2.4097185988482092e-03 0.0000000000000000e+00  3.1496450622195964e-02 2.1036163280435108e-03 0.0000000000000000e+00  3.1513325578541883e-02 9.9726295128172620e-04 0.0000000000000000e+00  3.1519974717802719e-02 -1.1189875865976812e-04 0.0000000000000000e+00  3.1516440700820526e-02 -1.2214646350002958e-03 0.0000000000000000e+00  3.1501760881728208e-02 -2.3270661264271270e-03 0.0000000000000000e+00  3.3158778740550260e-02 2.0187942183816747e-03 0.0000000000000000e+00  3.3175050960762377e-02 9.5342188765760213e-04 0.0000000000000000e+00  3.3181604725029734e-02 -1.1694819789822361e-04 0.0000000000000000e+00  3.3178830632847656e-02 -1.1875122016391567e-03 0.0000000000000000e+00  3.3165560320044085e-02 -2.2524967452945449e-03 0.0000000000000000e+00  3.4763280370963177e-02 1.9449431664708089e-03 0.0000000000000000e+00  3.4775823487542289e-02 9.1516289656618009e-04 0.0000000000000000e+00  3.4780731383961018e-02 -1.2146008277186611e-04 0.0000000000000000e+00  3.4778386080277231e-02 -1.1588900003094895e-03 0.0000000000000000e+00  3.4767747626434246e-02 -2.1880082425431934e-03 0.0000000000000000e+00  3.6312590401901199e-02 1.8852812243312252e-03 0.0000000000000000e+00  3.6322174943759000e-02 8.8346184129008197e-04 0.0000000000000000e+00  3.6327349407216623e-02 -1.2670250434509425e-04 0.0000000000000000e+00  3.6326568691483763e-02 -1.1363256091366154e-03 0.0000000000000000e+00  3.6318952728667281e-02 -2.1369886820200600e-03 0.0000000000000000e+00  3.7824530112617757e-02 1.8426244254155376e-03 0.0000000000000000e+00  3.7831160022134429e-02 8.5937481537720140e-04 0.0000000000000000e+00  3.7835436699423734e-02 -1.3267508518797209e-04 0.0000000000000000e+00  3.7836499633411576e-02 -1.1222234800467661e-03 0.0000000000000000e+00  3.7832472732671617e-02 -2.1032355951534228e-03 0.0000000000000000e+00  3.9316412883547640e-02 1.8207712835316677e-03 0.0000000000000000e+00  3.9318003064929788e-02 8.4294122616585768e-04 0.0000000000000000e+00  3.9322395213919101e-02 -1.4173150219332610e-04 0.0000000000000000e+00  3.9325317028682465e-02 -1.1170326599379370e-03 0.0000000000000000e+00  3.9325354374924119e-02 -2.0842746195796936e-03 0.0000000000000000e+00  4.0811285550436317e-02 1.8210881808383649e-03 0.0000000000000000e+00  4.0807840765843012e-02 8.3852894191531978e-04 0.0000000000000000e+00  4.0779693334923317e-02 -1.7680378347699805e-04 0.0000000000000000e+00  4.0800704011421808e-02 -1.1138955060113194e-03 0.0000000000000000e+00  4.0803449620669320e-02 -2.0789638871268126e-03 0.0000000000000000e+00  </DataArray> 
</PointData> 
</Piece>
</UnstructuredGrid>
</VTKFile>