# p  FACE_DATA 125
# x  y  z  p
0.9436 0.014545 0.05 -1220.2
0.943135 0.014165 0.05 -336.712
0.941275 0.014415 0.05 -327.393
0.93756 0.01495 0.05 -198.675
0.93201 0.015875 0.05 -24.2373
0.924645 0.01689 0.05 58.3829
0.91549 0.0177 0.05 162.397
0.904585 0.01825 0.05 276.646
0.89197 0.018305 0.05 401.191
0.877695 0.0176 0.05 486.476
0.631525 -0.046335 0.05 348.217
0.86182 0.01587 0.05 530.914
0.844405 0.012935 0.05 552.265
0.82552 0.0085 0.05 546.747
0.80524 0.002525 0.05 530.187
0.783645 -0.00452 0.05 511.613
0.76082 -0.012105 0.05 480.149
0.73685 -0.019795 0.05 441.327
0.711835 -0.02721 0.05 407.554
0.685875 -0.03415 0.05 377.377
0.65907 -0.040525 0.05 355.036
0.11305 -0.06184 0.05 635.417
0.103605 -0.060315 0.05 657.012
0.60335 -0.051855 0.05 326.526
0.574655 -0.05709 0.05 313.066
0.545555 -0.06188 0.05 298.16
0.516165 -0.06618 0.05 282.056
0.486595 -0.069815 0.05 274.405
0.45697 -0.072645 0.05 275.988
0.427405 -0.074675 0.05 287.253
0.39801 -0.07601 0.05 305.207
0.368905 -0.076765 0.05 322.495
0.34021 -0.077025 0.05 339.689
0.312035 -0.07685 0.05 362.875
0.28449 -0.076255 0.05 386.699
0.257685 -0.075275 0.05 411.15
0.231725 -0.073935 0.05 442.296
0.20671 -0.072245 0.05 470.083
0.18274 -0.070245 0.05 502.464
0.159915 -0.067945 0.05 542.389
0.13832 -0.06537 0.05 583.578
0.12285 -0.063305 0.05 613.514
0.061995 0.06227 0.05 -3332.88
0.06954 0.064025 0.05 -3055.79
0.07748 0.06569 0.05 -2847.67
0.08581 0.067285 0.05 -2660.98
0.09452 -0.058725 0.05 681.075
0.08581 -0.057065 0.05 704.849
0.07748 -0.05534 0.05 729.49
0.06954 -0.053545 0.05 754.692
0.061995 -0.05168 0.05 779.689
0.054855 -0.04973 0.05 803.826
0.04813 -0.04767 0.05 827.655
0.04182 -0.04552 0.05 847.183
0.035935 -0.04329 0.05 861.559
0.03048 -0.040935 0.05 864.955
0.025455 -0.038445 0.05 855.101
0.020875 -0.03581 0.05 820.236
0.016745 -0.033015 0.05 753.565
0.01306 -0.030045 0.05 640.127
0.009825 -0.02686 0.05 471.34
0.007045 -0.02347 0.05 244.301
0.004725 -0.019885 0.05 -46.6723
0.00287 -0.016105 0.05 -389.189
0.001475 -0.012045 0.05 -768.555
0.00054 -0.00772 0.05 -1126.77
0.000115 -0.00316 0.05 -1498
0.000115 0.00171 0.05 -1725.87
0.00054 0.006905 0.05 -2195.03
0.001475 0.012375 0.05 -2612.41
0.00287 0.0179 0.05 -3123.48
0.004725 0.02323 0.05 -3739.82
0.007045 0.02829 0.05 -4286.5
0.009825 0.0331 0.05 -4796.59
0.01306 0.03761 0.05 -5292.88
0.016745 0.041755 0.05 -5693.07
0.020875 0.04545 0.05 -5944.06
0.025455 0.04863 0.05 -5802.4
0.030475 0.051385 0.05 -5204.52
0.03593 0.05387 0.05 -4628.48
0.04182 0.056185 0.05 -4187.13
0.04813 0.05837 0.05 -3883
0.054855 0.0604 0.05 -3628.02
0.09452 0.068825 0.05 -2516.45
0.103605 0.070305 0.05 -2382.69
0.11305 0.07174 0.05 -2258.75
0.12285 0.07313 0.05 -2166.29
0.13832 0.075095 0.05 -2029.55
0.159915 0.07756 0.05 -1872.01
0.18274 0.079805 0.05 -1767.01
0.20671 0.081815 0.05 -1652.08
0.231725 0.08358 0.05 -1574.05
0.257685 0.085085 0.05 -1507.39
0.28449 0.08632 0.05 -1431.6
0.312035 0.087275 0.05 -1379.06
0.34021 0.08793 0.05 -1338.31
0.368905 0.08828 0.05 -1295.55
0.39801 0.08832 0.05 -1259
0.427405 0.088035 0.05 -1220.08
0.45697 0.087425 0.05 -1202.97
0.486595 0.08647 0.05 -1178.66
0.516165 0.08514 0.05 -1163.54
0.545555 0.08343 0.05 -1133.9
0.574655 0.081315 0.05 -1105.23
0.60335 0.07876 0.05 -1083.61
0.631525 0.075735 0.05 -1065.78
0.65907 0.07224 0.05 -1031.21
0.685875 0.06833 0.05 -976.525
0.711835 0.064095 0.05 -947.252
0.73685 0.05963 0.05 -882.853
0.76082 0.05504 0.05 -825.189
0.783645 0.050435 0.05 -795.668
0.80524 0.04591 0.05 -733.696
0.82552 0.041545 0.05 -703.26
0.844405 0.037385 0.05 -653.688
0.86182 0.03349 0.05 -645.181
0.877695 0.029905 0.05 -607.908
0.89197 0.026655 0.05 -597.381
0.904585 0.023765 0.05 -579.995
0.91549 0.021245 0.05 -565.423
0.924645 0.01919 0.05 -547.645
0.93201 0.0176 0.05 -556.004
0.93756 0.01635 0.05 -572.516
0.941275 0.015495 0.05 -589.316
0.943135 0.01509 0.05 -614.051
