# Force coefficients
# dragDir     : (9.945246e-01 1.045026e-01 0.000000e+00)
# sideDir     : (0.000000e+00 0.000000e+00 -1.000000e+00)
# liftDir     : (-1.045026e-01 9.945246e-01 0.000000e+00)
# rollAxis    : (9.945246e-01 1.045026e-01 0.000000e+00)
# pitchAxis   : (0.000000e+00 0.000000e+00 -1.000000e+00)
# yawAxis     : (-1.045026e-01 9.945246e-01 0.000000e+00)
# magUInf     : 4.186900e+01
# lRef        : 9.400000e-01
# Aref        : 1.000000e-01
# CofR        : (2.500000e-01 0.000000e+00 0.000000e+00)
#
# Time        	Cd            	Cs            	Cl            	CmRoll        	CmPitch       	CmYaw         	Cd(f)         	Cd(r)         	Cs(f)         	Cs(r)         	Cl(f)         	Cl(r)         
1             	7.959241e+01	2.868399e-20	1.983529e+02	-2.110137e+02	-1.035034e+02	8.467277e+01	-1.712175e+02	2.508099e+02	8.467277e+01	-8.467277e+01	-4.326911e+00	2.026798e+02
2             	2.287703e+01	1.209267e-20	7.074276e+01	-7.525826e+01	-3.660033e+01	2.433727e+01	-6.381974e+01	8.669677e+01	2.433727e+01	-2.433727e+01	-1.228946e+00	7.197171e+01
3             	1.010104e+01	-1.719176e-21	3.739236e+01	-3.977910e+01	-1.904233e+01	1.074579e+01	-3.472858e+01	4.482962e+01	1.074579e+01	-1.074579e+01	-3.461477e-01	3.773850e+01
4             	5.547594e+00	3.408962e-21	2.556925e+01	-2.720133e+01	-1.287103e+01	5.901695e+00	-2.442753e+01	2.997513e+01	5.901695e+00	-5.901695e+00	-8.640391e-02	2.565565e+01
5             	4.828989e+00	7.213012e-21	2.362440e+01	-2.513234e+01	-1.175871e+01	5.137222e+00	-2.271784e+01	2.754683e+01	5.137222e+00	-5.137222e+00	5.348810e-02	2.357091e+01
6             	4.665439e+00	6.650727e-21	2.334838e+01	-2.483870e+01	-1.126472e+01	4.963233e+00	-2.250598e+01	2.717142e+01	4.963233e+00	-4.963233e+00	4.094635e-01	2.293891e+01
7             	4.539777e+00	7.561345e-21	2.329778e+01	-2.478487e+01	-1.087644e+01	4.829550e+00	-2.251498e+01	2.705476e+01	4.829550e+00	-4.829550e+00	7.724457e-01	2.252533e+01
8             	4.377781e+00	6.080436e-21	2.312074e+01	-2.459653e+01	-1.045190e+01	4.657214e+00	-2.240764e+01	2.678542e+01	4.657214e+00	-4.657214e+00	1.108469e+00	2.201227e+01
9             	4.229156e+00	4.741999e-21	2.301266e+01	-2.448156e+01	-1.012276e+01	4.499102e+00	-2.236698e+01	2.659613e+01	4.499102e+00	-4.499102e+00	1.383575e+00	2.162909e+01
10            	4.086232e+00	3.553219e-21	2.285683e+01	-2.431578e+01	-9.795297e+00	4.347056e+00	-2.227266e+01	2.635889e+01	4.347056e+00	-4.347056e+00	1.633119e+00	2.122371e+01
11            	3.942596e+00	3.047082e-21	2.267687e+01	-2.412433e+01	-9.460785e+00	4.194251e+00	-2.215303e+01	2.609562e+01	4.194251e+00	-4.194251e+00	1.877648e+00	2.079922e+01
12            	3.831188e+00	2.237541e-21	2.253845e+01	-2.397708e+01	-9.164580e+00	4.075732e+00	-2.206148e+01	2.589267e+01	4.075732e+00	-4.075732e+00	2.104647e+00	2.043381e+01
13            	3.861743e+00	2.637346e-21	2.270470e+01	-2.415394e+01	-9.152708e+00	4.108237e+00	-2.222306e+01	2.608481e+01	4.108237e+00	-4.108237e+00	2.199641e+00	2.050506e+01
14            	3.977422e+00	3.152843e-21	2.312589e+01	-2.460201e+01	-9.330309e+00	4.231300e+00	-2.261330e+01	2.659072e+01	4.231300e+00	-4.231300e+00	2.232634e+00	2.089325e+01
15            	4.082081e+00	3.899039e-21	2.359905e+01	-2.510538e+01	-9.518680e+00	4.342639e+00	-2.306434e+01	2.714642e+01	4.342639e+00	-4.342639e+00	2.280847e+00	2.131821e+01
16            	4.162531e+00	4.367974e-21	2.402640e+01	-2.556001e+01	-9.671994e+00	4.428224e+00	-2.347874e+01	2.764127e+01	4.428224e+00	-4.428224e+00	2.341208e+00	2.168520e+01
17            	4.216731e+00	4.859097e-21	2.438563e+01	-2.594215e+01	-9.780700e+00	4.485884e+00	-2.383379e+01	2.805052e+01	4.485884e+00	-4.485884e+00	2.412113e+00	2.197351e+01
18            	4.261970e+00	5.337785e-21	2.473781e+01	-2.631682e+01	-9.869191e+00	4.534011e+00	-2.418584e+01	2.844781e+01	4.534011e+00	-4.534011e+00	2.499716e+00	2.223810e+01
19            	4.316893e+00	5.497479e-21	2.516617e+01	-2.677252e+01	-9.973873e+00	4.592439e+00	-2.461407e+01	2.893097e+01	4.592439e+00	-4.592439e+00	2.609211e+00	2.255696e+01
20            	4.347132e+00	5.818331e-21	2.547912e+01	-2.710545e+01	-1.004515e+01	4.624609e+00	-2.493188e+01	2.927902e+01	4.624609e+00	-4.624609e+00	2.694410e+00	2.278471e+01
21            	4.374371e+00	5.710807e-21	2.580243e+01	-2.744939e+01	-1.011622e+01	4.653586e+00	-2.526221e+01	2.963658e+01	4.653586e+00	-4.653586e+00	2.784993e+00	2.301744e+01
22            	4.403485e+00	5.480942e-21	2.618309e+01	-2.785435e+01	-1.019835e+01	4.684559e+00	-2.565260e+01	3.005609e+01	4.684559e+00	-4.684559e+00	2.893192e+00	2.328989e+01
23            	4.420969e+00	5.358822e-21	2.654677e+01	-2.824125e+01	-1.027276e+01	4.703158e+00	-2.603076e+01	3.045173e+01	4.703158e+00	-4.703158e+00	3.000625e+00	2.354615e+01
24            	4.429447e+00	5.265476e-21	2.690615e+01	-2.862356e+01	-1.033488e+01	4.712177e+00	-2.640884e+01	3.083828e+01	4.712177e+00	-4.712177e+00	3.118192e+00	2.378795e+01
25            	4.421501e+00	5.135689e-21	2.724176e+01	-2.898060e+01	-1.037245e+01	4.703724e+00	-2.676985e+01	3.119135e+01	4.703724e+00	-4.703724e+00	3.248427e+00	2.399333e+01
26            	4.402966e+00	4.727875e-21	2.756844e+01	-2.932813e+01	-1.038807e+01	4.684007e+00	-2.712665e+01	3.152961e+01	4.684007e+00	-4.684007e+00	3.396147e+00	2.417230e+01
27            	4.376355e+00	4.659777e-21	2.787951e+01	-2.965906e+01	-1.038342e+01	4.655697e+00	-2.747088e+01	3.184723e+01	4.655697e+00	-4.655697e+00	3.556337e+00	2.432318e+01
28            	4.342651e+00	4.633290e-21	2.817833e+01	-2.997695e+01	-1.036150e+01	4.619841e+00	-2.780563e+01	3.214828e+01	4.619841e+00	-4.619841e+00	3.727669e+00	2.445067e+01
29            	4.302721e+00	4.873589e-21	2.849516e+01	-3.031400e+01	-1.032764e+01	4.577362e+00	-2.816264e+01	3.246536e+01	4.577362e+00	-4.577362e+00	3.919940e+00	2.457522e+01
30            	4.243535e+00	5.231697e-21	2.871261e+01	-3.054533e+01	-1.024861e+01	4.514399e+00	-2.842356e+01	3.266709e+01	4.514399e+00	-4.514399e+00	4.107693e+00	2.460491e+01
31            	4.172606e+00	5.586232e-21	2.897677e+01	-3.082635e+01	-1.014459e+01	4.438943e+00	-2.874004e+01	3.291265e+01	4.438943e+00	-4.438943e+00	4.343791e+00	2.463297e+01
32            	4.086900e+00	5.706311e-21	2.912916e+01	-3.098847e+01	-1.000626e+01	4.347766e+00	-2.894502e+01	3.303192e+01	4.347766e+00	-4.347766e+00	4.558318e+00	2.457084e+01
33            	4.001522e+00	5.513715e-21	2.930952e+01	-3.118034e+01	-9.860480e+00	4.256938e+00	-2.917958e+01	3.318110e+01	4.256938e+00	-4.256938e+00	4.794279e+00	2.451524e+01
34            	3.929530e+00	5.020735e-21	2.949585e+01	-3.137856e+01	-9.740329e+00	4.180351e+00	-2.941379e+01	3.334332e+01	4.180351e+00	-4.180351e+00	5.007594e+00	2.448825e+01
35            	3.880868e+00	4.529151e-21	2.973709e+01	-3.163520e+01	-9.669999e+00	4.128583e+00	-2.969476e+01	3.357563e+01	4.128583e+00	-4.128583e+00	5.198544e+00	2.453854e+01
36            	3.862134e+00	4.195673e-21	3.005651e+01	-3.197501e+01	-9.668231e+00	4.108653e+00	-3.004394e+01	3.390608e+01	4.108653e+00	-4.108653e+00	5.360023e+00	2.469649e+01
37            	3.869627e+00	3.893614e-21	3.045125e+01	-3.239495e+01	-9.729177e+00	4.116624e+00	-3.046014e+01	3.432976e+01	4.116624e+00	-4.116624e+00	5.496450e+00	2.495480e+01
38            	3.890256e+00	3.514318e-21	3.089482e+01	-3.286683e+01	-9.828217e+00	4.138570e+00	-3.092170e+01	3.481195e+01	4.138570e+00	-4.138570e+00	5.619191e+00	2.527563e+01
39            	3.904477e+00	3.199310e-21	3.130188e+01	-3.329987e+01	-9.924310e+00	4.153699e+00	-3.134763e+01	3.525211e+01	4.153699e+00	-4.153699e+00	5.726630e+00	2.557525e+01
40            	3.916710e+00	2.920517e-21	3.170610e+01	-3.372990e+01	-1.001513e+01	4.166712e+00	-3.177154e+01	3.568825e+01	4.166712e+00	-4.166712e+00	5.837923e+00	2.586818e+01
41            	3.915444e+00	2.650968e-21	3.205261e+01	-3.409852e+01	-1.008103e+01	4.165365e+00	-3.214079e+01	3.605624e+01	4.165365e+00	-4.165365e+00	5.945268e+00	2.610734e+01
42            	3.913012e+00	2.320546e-21	3.243487e+01	-3.450518e+01	-1.014405e+01	4.162778e+00	-3.254868e+01	3.646169e+01	4.162778e+00	-4.162778e+00	6.073391e+00	2.636148e+01
43            	3.902078e+00	2.021560e-21	3.279293e+01	-3.488609e+01	-1.019390e+01	4.151147e+00	-3.293505e+01	3.683713e+01	4.151147e+00	-4.151147e+00	6.202562e+00	2.659036e+01
44            	3.881799e+00	1.654542e-21	3.311489e+01	-3.522861e+01	-1.022667e+01	4.129574e+00	-3.328771e+01	3.716950e+01	4.129574e+00	-4.129574e+00	6.330770e+00	2.678412e+01
45            	3.854521e+00	1.383551e-21	3.341256e+01	-3.554527e+01	-1.024660e+01	4.100554e+00	-3.361801e+01	3.747253e+01	4.100554e+00	-4.100554e+00	6.459679e+00	2.695288e+01
46            	3.823768e+00	1.136777e-21	3.369606e+01	-3.584687e+01	-1.025926e+01	4.067838e+00	-3.393498e+01	3.775875e+01	4.067838e+00	-4.067838e+00	6.588766e+00	2.710729e+01
47            	3.793283e+00	8.042608e-22	3.397640e+01	-3.614510e+01	-1.027201e+01	4.035407e+00	-3.424846e+01	3.804174e+01	4.035407e+00	-4.035407e+00	6.716186e+00	2.726021e+01
48            	3.759565e+00	6.021040e-22	3.424739e+01	-3.643339e+01	-1.028416e+01	3.999537e+00	-3.455361e+01	3.831317e+01	3.999537e+00	-3.999537e+00	6.839537e+00	2.740785e+01
49            	3.723564e+00	6.578270e-22	3.451434e+01	-3.671738e+01	-1.029726e+01	3.961239e+00	-3.485560e+01	3.857917e+01	3.961239e+00	-3.961239e+00	6.959909e+00	2.755443e+01
50            	3.683648e+00	1.012635e-21	3.472036e+01	-3.693655e+01	-1.030720e+01	3.918775e+00	-3.509472e+01	3.877837e+01	3.918775e+00	-3.918775e+00	7.052981e+00	2.766738e+01
51            	3.644008e+00	1.497948e-21	3.505911e+01	-3.729693e+01	-1.032401e+01	3.876604e+00	-3.547492e+01	3.911893e+01	3.876604e+00	-3.876604e+00	7.205547e+00	2.785356e+01
52            	3.600703e+00	1.604204e-21	3.524283e+01	-3.749238e+01	-1.033462e+01	3.830536e+00	-3.569203e+01	3.929273e+01	3.830536e+00	-3.830536e+00	7.286802e+00	2.795603e+01
53            	3.549959e+00	2.034892e-21	3.548193e+01	-3.774673e+01	-1.033951e+01	3.776552e+00	-3.597175e+01	3.952171e+01	3.776552e+00	-3.776552e+00	7.401449e+00	2.808048e+01
54            	3.500021e+00	2.568313e-21	3.572851e+01	-3.800906e+01	-1.034683e+01	3.723427e+00	-3.625905e+01	3.975907e+01	3.723427e+00	-3.723427e+00	7.517427e+00	2.821109e+01
55            	3.448468e+00	3.194324e-21	3.595864e+01	-3.825388e+01	-1.035220e+01	3.668582e+00	-3.652964e+01	3.997811e+01	3.668582e+00	-3.668582e+00	7.627127e+00	2.833152e+01
56            	3.393550e+00	3.760734e-21	3.617001e+01	-3.847874e+01	-1.035234e+01	3.610160e+00	-3.678196e+01	4.017551e+01	3.610160e+00	-3.610160e+00	7.732672e+00	2.843734e+01
57            	3.334656e+00	4.212977e-21	3.636368e+01	-3.868477e+01	-1.034675e+01	3.547507e+00	-3.701744e+01	4.035209e+01	3.547507e+00	-3.547507e+00	7.835094e+00	2.852859e+01
58            	3.272717e+00	4.399108e-21	3.652357e+01	-3.885486e+01	-1.033195e+01	3.481613e+00	-3.721850e+01	4.049122e+01	3.481613e+00	-3.481613e+00	7.929838e+00	2.859373e+01
59            	3.206436e+00	4.548027e-21	3.668800e+01	-3.902978e+01	-1.030005e+01	3.411102e+00	-3.742657e+01	4.063300e+01	3.411102e+00	-3.411102e+00	8.043946e+00	2.864405e+01
60            	3.143274e+00	4.736641e-21	3.678465e+01	-3.913260e+01	-1.028280e+01	3.343909e+00	-3.756097e+01	4.070424e+01	3.343909e+00	-3.343909e+00	8.109526e+00	2.867512e+01
61            	3.069763e+00	4.942263e-21	3.692911e+01	-3.928629e+01	-1.024158e+01	3.265705e+00	-3.775141e+01	4.082117e+01	3.265705e+00	-3.265705e+00	8.222981e+00	2.870613e+01
62            	3.008354e+00	5.017676e-21	3.702038e+01	-3.938338e+01	-1.021962e+01	3.200377e+00	-3.787920e+01	4.088756e+01	3.200377e+00	-3.200377e+00	8.290571e+00	2.872981e+01
63            	2.935262e+00	5.062233e-21	3.716665e+01	-3.953899e+01	-1.017345e+01	3.122620e+00	-3.807136e+01	4.100662e+01	3.122620e+00	-3.122620e+00	8.409872e+00	2.875678e+01
64            	2.877117e+00	4.982288e-21	3.724428e+01	-3.962157e+01	-1.014157e+01	3.060762e+00	-3.818301e+01	4.106013e+01	3.060762e+00	-3.060762e+00	8.480570e+00	2.876371e+01
65            	2.805594e+00	4.969250e-21	3.736947e+01	-3.975475e+01	-1.008607e+01	2.984674e+00	-3.835196e+01	4.115755e+01	2.984674e+00	-2.984674e+00	8.598663e+00	2.877080e+01
66            	2.752391e+00	4.887761e-21	3.743645e+01	-3.982601e+01	-1.004832e+01	2.928075e+00	-3.844981e+01	4.120220e+01	2.928075e+00	-2.928075e+00	8.669907e+00	2.876654e+01
67            	2.689426e+00	4.792685e-21	3.755368e+01	-3.995072e+01	-9.999419e+00	2.861091e+00	-3.860601e+01	4.129543e+01	2.861091e+00	-2.861091e+00	8.777419e+00	2.877626e+01
68            	2.640046e+00	4.899385e-21	3.765520e+01	-4.005872e+01	-9.970272e+00	2.808560e+00	-3.873870e+01	4.137875e+01	2.808560e+00	-2.808560e+00	8.857328e+00	2.879787e+01
69            	2.598806e+00	4.853119e-21	3.777958e+01	-4.019104e+01	-9.954588e+00	2.764687e+00	-3.889164e+01	4.149045e+01	2.764687e+00	-2.764687e+00	8.935203e+00	2.884438e+01
70            	2.563605e+00	4.613460e-21	3.793163e+01	-4.035280e+01	-9.949738e+00	2.727240e+00	-3.907099e+01	4.163460e+01	2.727240e+00	-2.727240e+00	9.016076e+00	2.891555e+01
71            	2.533227e+00	4.683026e-21	3.810952e+01	-4.054204e+01	-9.956307e+00	2.694922e+00	-3.927542e+01	4.180865e+01	2.694922e+00	-2.694922e+00	9.098451e+00	2.901107e+01
72            	2.505811e+00	4.729316e-21	3.830609e+01	-4.075116e+01	-9.971967e+00	2.665757e+00	-3.949825e+01	4.200406e+01	2.665757e+00	-2.665757e+00	9.181077e+00	2.912501e+01
73            	2.480495e+00	4.733581e-21	3.849891e+01	-4.095629e+01	-9.990027e+00	2.638825e+00	-3.971604e+01	4.219654e+01	2.638825e+00	-2.638825e+00	9.259430e+00	2.923948e+01
74            	2.456054e+00	4.785390e-21	3.869509e+01	-4.116499e+01	-1.000960e+01	2.612824e+00	-3.993696e+01	4.239302e+01	2.612824e+00	-2.612824e+00	9.337942e+00	2.935715e+01
75            	2.432041e+00	4.913173e-21	3.887674e+01	-4.135823e+01	-1.002493e+01	2.587277e+00	-4.014221e+01	4.257425e+01	2.587277e+00	-2.587277e+00	9.413434e+00	2.946330e+01
76            	2.406860e+00	4.956123e-21	3.901517e+01	-4.150550e+01	-1.002750e+01	2.560489e+00	-4.030207e+01	4.270893e+01	2.560489e+00	-2.560489e+00	9.480089e+00	2.953508e+01
77            	2.379618e+00	4.981244e-21	3.916863e+01	-4.166876e+01	-1.002800e+01	2.531509e+00	-4.047895e+01	4.285857e+01	2.531509e+00	-2.531509e+00	9.556317e+00	2.961231e+01
78            	2.351586e+00	5.012753e-21	3.930473e+01	-4.181355e+01	-1.002371e+01	2.501687e+00	-4.063775e+01	4.298934e+01	2.501687e+00	-2.501687e+00	9.628661e+00	2.967607e+01
79            	2.322654e+00	5.076944e-21	3.942404e+01	-4.194047e+01	-1.001456e+01	2.470908e+00	-4.077915e+01	4.310180e+01	2.470908e+00	-2.470908e+00	9.697465e+00	2.972658e+01
80            	2.293085e+00	5.139669e-21	3.953150e+01	-4.205478e+01	-1.000174e+01	2.439453e+00	-4.090824e+01	4.320133e+01	2.439453e+00	-2.439453e+00	9.764009e+00	2.976749e+01
81            	2.263479e+00	5.200064e-21	3.963058e+01	-4.216019e+01	-9.986947e+00	2.407956e+00	-4.102845e+01	4.329193e+01	2.407956e+00	-2.407956e+00	9.828343e+00	2.980224e+01
82            	2.234245e+00	5.279235e-21	3.972382e+01	-4.225938e+01	-9.971540e+00	2.376856e+00	-4.114226e+01	4.337650e+01	2.376856e+00	-2.376856e+00	9.890368e+00	2.983345e+01
83            	2.205618e+00	5.352892e-21	3.981286e+01	-4.235411e+01	-9.956214e+00	2.346402e+00	-4.125130e+01	4.345692e+01	2.346402e+00	-2.346402e+00	9.950219e+00	2.986265e+01
84            	2.178180e+00	5.418385e-21	3.989557e+01	-4.244209e+01	-9.940768e+00	2.317213e+00	-4.135300e+01	4.353118e+01	2.317213e+00	-2.317213e+00	1.000702e+01	2.988855e+01
85            	2.151414e+00	5.477838e-21	3.997786e+01	-4.252964e+01	-9.926009e+00	2.288739e+00	-4.145393e+01	4.360534e+01	2.288739e+00	-2.288739e+00	1.006292e+01	2.991494e+01
86            	2.124899e+00	5.539691e-21	4.005725e+01	-4.261410e+01	-9.911006e+00	2.260531e+00	-4.155165e+01	4.367655e+01	2.260531e+00	-2.260531e+00	1.011762e+01	2.993963e+01
87            	2.098316e+00	5.596436e-21	4.013069e+01	-4.269222e+01	-9.894535e+00	2.232251e+00	-4.164306e+01	4.374138e+01	2.232251e+00	-2.232251e+00	1.017081e+01	2.995988e+01
88            	2.071478e+00	5.661371e-21	4.019621e+01	-4.276193e+01	-9.875743e+00	2.203700e+00	-4.172619e+01	4.379766e+01	2.203700e+00	-2.203700e+00	1.022236e+01	2.997385e+01
89            	2.044315e+00	5.726865e-21	4.025311e+01	-4.282246e+01	-9.854238e+00	2.174803e+00	-4.180030e+01	4.384462e+01	2.174803e+00	-2.174803e+00	1.027232e+01	2.998079e+01
90            	2.021705e+00	5.784958e-21	4.028817e+01	-4.285975e+01	-9.836836e+00	2.150750e+00	-4.184890e+01	4.387061e+01	2.150750e+00	-2.150750e+00	1.030725e+01	2.998092e+01
91            	1.988060e+00	5.797306e-21	4.035588e+01	-4.293179e+01	-9.801568e+00	2.114957e+00	-4.193776e+01	4.392582e+01	2.114957e+00	-2.114957e+00	1.037637e+01	2.997951e+01
92            	1.967305e+00	5.829212e-21	4.037786e+01	-4.295517e+01	-9.784329e+00	2.092878e+00	-4.197152e+01	4.393883e+01	2.092878e+00	-2.092878e+00	1.040460e+01	2.997326e+01
93            	1.935305e+00	5.816146e-21	4.041940e+01	-4.299936e+01	-9.748865e+00	2.058835e+00	-4.203171e+01	4.396701e+01	2.058835e+00	-2.058835e+00	1.046083e+01	2.995856e+01
94            	1.917001e+00	5.813737e-21	4.043573e+01	-4.301673e+01	-9.733670e+00	2.039362e+00	-4.205823e+01	4.397523e+01	2.039362e+00	-2.039362e+00	1.048419e+01	2.995153e+01
95            	1.890397e+00	5.776438e-21	4.048028e+01	-4.306412e+01	-9.707425e+00	2.011061e+00	-4.211893e+01	4.400932e+01	2.011061e+00	-2.011061e+00	1.053271e+01	2.994756e+01
96            	1.875227e+00	5.747915e-21	4.050034e+01	-4.308546e+01	-9.696622e+00	1.994922e+00	-4.214785e+01	4.402308e+01	1.994922e+00	-1.994922e+00	1.055355e+01	2.994679e+01
97            	1.853562e+00	5.703390e-21	4.055300e+01	-4.314149e+01	-9.679457e+00	1.971874e+00	-4.221471e+01	4.406827e+01	1.971874e+00	-1.971874e+00	1.059704e+01	2.995596e+01
98            	1.841317e+00	5.666200e-21	4.057489e+01	-4.316477e+01	-9.671636e+00	1.958848e+00	-4.224412e+01	4.408543e+01	1.958848e+00	-1.958848e+00	1.061581e+01	2.995908e+01
99            	1.824678e+00	5.630395e-21	4.063243e+01	-4.322599e+01	-9.660343e+00	1.941147e+00	-4.231365e+01	4.413833e+01	1.941147e+00	-1.941147e+00	1.065587e+01	2.997656e+01
100           	1.815013e+00	5.603154e-21	4.065467e+01	-4.324965e+01	-9.654343e+00	1.930864e+00	-4.234215e+01	4.415716e+01	1.930864e+00	-1.930864e+00	1.067299e+01	2.998168e+01
101           	1.802377e+00	5.581685e-21	4.071013e+01	-4.330865e+01	-9.645674e+00	1.917422e+00	-4.240746e+01	4.420984e+01	1.917422e+00	-1.917422e+00	1.070939e+01	3.000074e+01
102           	1.794533e+00	5.568042e-21	4.073007e+01	-4.332986e+01	-9.639826e+00	1.909078e+00	-4.243259e+01	4.422713e+01	1.909078e+00	-1.909078e+00	1.072521e+01	3.000486e+01
103           	1.783676e+00	5.555873e-21	4.077874e+01	-4.338164e+01	-9.629379e+00	1.897527e+00	-4.248980e+01	4.427348e+01	1.897527e+00	-1.897527e+00	1.075999e+01	3.001875e+01
104           	1.776626e+00	5.550038e-21	4.079336e+01	-4.339719e+01	-9.621661e+00	1.890028e+00	-4.250888e+01	4.428551e+01	1.890028e+00	-1.890028e+00	1.077502e+01	3.001834e+01
105           	1.764921e+00	5.541124e-21	4.081907e+01	-4.342455e+01	-9.602973e+00	1.877575e+00	-4.254209e+01	4.430701e+01	1.877575e+00	-1.877575e+00	1.080656e+01	3.001251e+01
106           	1.757261e+00	5.536565e-21	4.082150e+01	-4.342712e+01	-9.590424e+00	1.869427e+00	-4.254849e+01	4.430575e+01	1.869427e+00	-1.869427e+00	1.082032e+01	3.000117e+01
107           	1.742268e+00	5.521564e-21	4.082545e+01	-4.343133e+01	-9.560227e+00	1.853477e+00	-4.256019e+01	4.430246e+01	1.853477e+00	-1.853477e+00	1.085250e+01	2.997295e+01
108           	1.734679e+00	5.518350e-21	4.082490e+01	-4.343075e+01	-9.546082e+00	1.845403e+00	-4.256341e+01	4.429809e+01	1.845403e+00	-1.845403e+00	1.086637e+01	2.995853e+01
109           	1.719024e+00	5.500319e-21	4.082775e+01	-4.343377e+01	-9.513272e+00	1.828749e+00	-4.257426e+01	4.429329e+01	1.828749e+00	-1.828749e+00	1.090060e+01	2.992715e+01
110           	1.711720e+00	5.499625e-21	4.082675e+01	-4.343271e+01	-9.498732e+00	1.820979e+00	-4.257685e+01	4.428857e+01	1.820979e+00	-1.820979e+00	1.091464e+01	2.991211e+01
111           	1.695793e+00	5.479657e-21	4.082596e+01	-4.343187e+01	-9.464607e+00	1.804035e+00	-4.258397e+01	4.427976e+01	1.804035e+00	-1.804035e+00	1.094837e+01	2.987758e+01
112           	1.689212e+00	5.481008e-21	4.082466e+01	-4.343049e+01	-9.451169e+00	1.797034e+00	-4.258589e+01	4.427510e+01	1.797034e+00	-1.797034e+00	1.096116e+01	2.986350e+01
113           	1.674181e+00	5.460621e-21	4.082443e+01	-4.343024e+01	-9.419220e+00	1.781044e+00	-4.259315e+01	4.426733e+01	1.781044e+00	-1.781044e+00	1.099299e+01	2.983143e+01
114           	1.668940e+00	5.464173e-21	4.082571e+01	-4.343161e+01	-9.408964e+00	1.775468e+00	-4.259714e+01	4.426608e+01	1.775468e+00	-1.775468e+00	1.100389e+01	2.982182e+01
115           	1.656590e+00	5.444039e-21	4.083666e+01	-4.344326e+01	-9.384305e+00	1.762329e+00	-4.261496e+01	4.427155e+01	1.762329e+00	-1.762329e+00	1.103402e+01	2.980264e+01
116           	1.652220e+00	5.448273e-21	4.084213e+01	-4.344908e+01	-9.377027e+00	1.757681e+00	-4.262297e+01	4.427519e+01	1.757681e+00	-1.757681e+00	1.104404e+01	2.979809e+01
117           	1.642534e+00	5.428638e-21	4.086818e+01	-4.347679e+01	-9.360825e+00	1.747377e+00	-4.265552e+01	4.429806e+01	1.747377e+00	-1.747377e+00	1.107327e+01	2.979492e+01
118           	1.638282e+00	5.432156e-21	4.087811e+01	-4.348735e+01	-9.355620e+00	1.742853e+00	-4.266821e+01	4.430649e+01	1.742853e+00	-1.742853e+00	1.108343e+01	2.979467e+01
119           	1.630570e+00	5.415913e-21	4.091609e+01	-4.352776e+01	-9.346919e+00	1.734649e+00	-4.271247e+01	4.434304e+01	1.734649e+00	-1.734649e+00	1.111113e+01	2.980497e+01
120           	1.626181e+00	5.418779e-21	4.093034e+01	-4.354292e+01	-9.343416e+00	1.729980e+00	-4.272983e+01	4.435601e+01	1.729980e+00	-1.729980e+00	1.112176e+01	2.980859e+01
121           	1.619698e+00	5.406230e-21	4.097626e+01	-4.359176e+01	-9.339928e+00	1.723083e+00	-4.278192e+01	4.440161e+01	1.723083e+00	-1.723083e+00	1.114820e+01	2.982806e+01
122           	1.615162e+00	5.409751e-21	4.099339e+01	-4.360999e+01	-9.337800e+00	1.718258e+00	-4.280241e+01	4.441757e+01	1.718258e+00	-1.718258e+00	1.115890e+01	2.983450e+01
123           	1.609067e+00	5.401156e-21	4.104436e+01	-4.366421e+01	-9.337391e+00	1.711774e+00	-4.285967e+01	4.446874e+01	1.711774e+00	-1.711774e+00	1.118479e+01	2.985957e+01
124           	1.604338e+00	5.407030e-21	4.106303e+01	-4.368408e+01	-9.336113e+00	1.706743e+00	-4.288191e+01	4.448625e+01	1.706743e+00	-1.706743e+00	1.119540e+01	2.986763e+01
125           	1.598328e+00	5.402039e-21	4.111912e+01	-4.374374e+01	-9.337797e+00	1.700349e+00	-4.294458e+01	4.454291e+01	1.700349e+00	-1.700349e+00	1.122176e+01	2.989736e+01
126           	1.593397e+00	5.410212e-21	4.113911e+01	-4.376501e+01	-9.337111e+00	1.695103e+00	-4.296831e+01	4.456170e+01	1.695103e+00	-1.695103e+00	1.123244e+01	2.990666e+01
127           	1.587668e+00	5.407273e-21	4.119830e+01	-4.382798e+01	-9.340376e+00	1.689008e+00	-4.303414e+01	4.462181e+01	1.689008e+00	-1.689008e+00	1.125877e+01	2.993952e+01
128           	1.582560e+00	5.416320e-21	4.121855e+01	-4.384952e+01	-9.340073e+00	1.683575e+00	-4.305824e+01	4.464080e+01	1.683575e+00	-1.683575e+00	1.126920e+01	2.994935e+01
129           	1.576975e+00	5.415095e-21	4.127797e+01	-4.391274e+01	-9.344305e+00	1.677633e+00	-4.312425e+01	4.470123e+01	1.677633e+00	-1.677633e+00	1.129468e+01	2.998329e+01
130           	1.571792e+00	5.422130e-21	4.131395e+01	-4.395101e+01	-9.346567e+00	1.672119e+00	-4.316511e+01	4.473691e+01	1.672119e+00	-1.672119e+00	1.131041e+01	3.000354e+01
131           	1.566054e+00	5.428089e-21	4.135279e+01	-4.399233e+01	-9.348814e+00	1.666015e+00	-4.320930e+01	4.477536e+01	1.666015e+00	-1.666015e+00	1.132758e+01	3.002521e+01
132           	1.560379e+00	5.431982e-21	4.139517e+01	-4.403741e+01	-9.351771e+00	1.659978e+00	-4.325722e+01	4.481760e+01	1.659978e+00	-1.659978e+00	1.134581e+01	3.004935e+01
133           	1.554700e+00	5.435944e-21	4.143863e+01	-4.408364e+01	-9.355199e+00	1.653936e+00	-4.330629e+01	4.486099e+01	1.653936e+00	-1.653936e+00	1.136411e+01	3.007451e+01
134           	1.548933e+00	5.440423e-21	4.148277e+01	-4.413060e+01	-9.358901e+00	1.647801e+00	-4.335614e+01	4.490507e+01	1.647801e+00	-1.647801e+00	1.138248e+01	3.010028e+01
135           	1.543049e+00	5.445317e-21	4.152713e+01	-4.417780e+01	-9.362687e+00	1.641542e+00	-4.340627e+01	4.494932e+01	1.641542e+00	-1.641542e+00	1.140088e+01	3.012625e+01
136           	1.537000e+00	5.450337e-21	4.157157e+01	-4.422508e+01	-9.366439e+00	1.635107e+00	-4.345658e+01	4.499358e+01	1.635107e+00	-1.635107e+00	1.141935e+01	3.015223e+01
137           	1.530813e+00	5.455509e-21	4.161603e+01	-4.427237e+01	-9.370116e+00	1.628524e+00	-4.350696e+01	4.503778e+01	1.628524e+00	-1.628524e+00	1.143790e+01	3.017813e+01
138           	1.524427e+00	5.460753e-21	4.165991e+01	-4.431905e+01	-9.373583e+00	1.621731e+00	-4.355683e+01	4.508126e+01	1.621731e+00	-1.621731e+00	1.145637e+01	3.020354e+01
139           	1.517873e+00	5.466176e-21	4.170340e+01	-4.436531e+01	-9.376864e+00	1.614758e+00	-4.360638e+01	4.512425e+01	1.614758e+00	-1.614758e+00	1.147483e+01	3.022856e+01
140           	1.511138e+00	5.471751e-21	4.174626e+01	-4.441091e+01	-9.379927e+00	1.607594e+00	-4.365534e+01	4.516648e+01	1.607594e+00	-1.607594e+00	1.149320e+01	3.025306e+01
141           	1.504280e+00	5.477522e-21	4.178853e+01	-4.445589e+01	-9.382799e+00	1.600298e+00	-4.370375e+01	4.520803e+01	1.600298e+00	-1.600298e+00	1.151147e+01	3.027707e+01
142           	1.497328e+00	5.483288e-21	4.183052e+01	-4.450055e+01	-9.385560e+00	1.592903e+00	-4.375189e+01	4.524922e+01	1.592903e+00	-1.592903e+00	1.152970e+01	3.030082e+01
143           	1.490336e+00	5.489090e-21	4.187228e+01	-4.454498e+01	-9.388264e+00	1.585463e+00	-4.379981e+01	4.529015e+01	1.585463e+00	-1.585463e+00	1.154788e+01	3.032441e+01
144           	1.483291e+00	5.494930e-21	4.191363e+01	-4.458897e+01	-9.390898e+00	1.577969e+00	-4.384733e+01	4.533062e+01	1.577969e+00	-1.577969e+00	1.156592e+01	3.034771e+01
145           	1.476227e+00	5.500876e-21	4.195453e+01	-4.463248e+01	-9.393471e+00	1.570454e+00	-4.389436e+01	4.537059e+01	1.570454e+00	-1.570454e+00	1.158379e+01	3.037073e+01
146           	1.469166e+00	5.506805e-21	4.199528e+01	-4.467583e+01	-9.396056e+00	1.562943e+00	-4.394124e+01	4.541041e+01	1.562943e+00	-1.562943e+00	1.160158e+01	3.039369e+01
147           	1.462160e+00	5.512690e-21	4.203600e+01	-4.471915e+01	-9.398700e+00	1.555490e+00	-4.398807e+01	4.545023e+01	1.555490e+00	-1.555490e+00	1.161930e+01	3.041670e+01
148           	1.455575e+00	5.519475e-21	4.206219e+01	-4.474701e+01	-9.399473e+00	1.548484e+00	-4.401922e+01	4.547479e+01	1.548484e+00	-1.548484e+00	1.163162e+01	3.043057e+01
149           	1.448545e+00	5.522784e-21	4.212855e+01	-4.481760e+01	-9.405435e+00	1.541006e+00	-4.409333e+01	4.554188e+01	1.541006e+00	-1.541006e+00	1.165884e+01	3.046971e+01
150           	1.442534e+00	5.529512e-21	4.215019e+01	-4.484063e+01	-9.406470e+00	1.534611e+00	-4.411936e+01	4.556190e+01	1.534611e+00	-1.534611e+00	1.166863e+01	3.048157e+01
151           	1.435049e+00	5.535338e-21	4.220861e+01	-4.490278e+01	-9.411686e+00	1.526648e+00	-4.418525e+01	4.562030e+01	1.526648e+00	-1.526648e+00	1.169262e+01	3.051599e+01
152           	1.429094e+00	5.541564e-21	4.222982e+01	-4.492534e+01	-9.412638e+00	1.520312e+00	-4.421080e+01	4.563989e+01	1.520312e+00	-1.520312e+00	1.170227e+01	3.052755e+01
153           	1.421700e+00	5.547772e-21	4.228834e+01	-4.498760e+01	-9.417896e+00	1.512447e+00	-4.427675e+01	4.569845e+01	1.512447e+00	-1.512447e+00	1.172627e+01	3.056207e+01
154           	1.415856e+00	5.553902e-21	4.230957e+01	-4.501019e+01	-9.418963e+00	1.506230e+00	-4.430226e+01	4.571811e+01	1.506230e+00	-1.506230e+00	1.173582e+01	3.057375e+01
155           	1.408853e+00	5.560651e-21	4.236890e+01	-4.507329e+01	-9.424858e+00	1.498780e+00	-4.436887e+01	4.577772e+01	1.498780e+00	-1.498780e+00	1.175959e+01	3.060931e+01
156           	1.403148e+00	5.566849e-21	4.239032e+01	-4.509608e+01	-9.426148e+00	1.492711e+00	-4.439451e+01	4.579766e+01	1.492711e+00	-1.492711e+00	1.176901e+01	3.062131e+01
157           	1.396621e+00	5.573780e-21	4.244948e+01	-4.515902e+01	-9.432631e+00	1.485767e+00	-4.446071e+01	4.585733e+01	1.485767e+00	-1.485767e+00	1.179211e+01	3.065737e+01
158           	1.391071e+00	5.579819e-21	4.247102e+01	-4.518193e+01	-9.434108e+00	1.479863e+00	-4.448640e+01	4.587747e+01	1.479863e+00	-1.479863e+00	1.180140e+01	3.066962e+01
159           	1.385013e+00	5.586619e-21	4.252979e+01	-4.524446e+01	-9.441040e+00	1.473418e+00	-4.455195e+01	4.593696e+01	1.473418e+00	-1.473418e+00	1.182385e+01	3.070593e+01
160           	1.379660e+00	5.592475e-21	4.255124e+01	-4.526727e+01	-9.442692e+00	1.467724e+00	-4.457744e+01	4.595710e+01	1.467724e+00	-1.467724e+00	1.183293e+01	3.071831e+01
161           	1.374077e+00	5.599282e-21	4.261064e+01	-4.533047e+01	-9.450246e+00	1.461784e+00	-4.464343e+01	4.601751e+01	1.461784e+00	-1.461784e+00	1.185507e+01	3.075557e+01
162           	1.368972e+00	5.605671e-21	4.264533e+01	-4.536737e+01	-9.454818e+00	1.456353e+00	-4.468289e+01	4.605186e+01	1.456353e+00	-1.456353e+00	1.186785e+01	3.077748e+01
163           	1.363538e+00	5.612879e-21	4.268229e+01	-4.540669e+01	-9.459104e+00	1.450572e+00	-4.472492e+01	4.608846e+01	1.450572e+00	-1.450572e+00	1.188204e+01	3.080025e+01
164           	1.358345e+00	5.619244e-21	4.272186e+01	-4.544878e+01	-9.463846e+00	1.445047e+00	-4.476961e+01	4.612796e+01	1.445047e+00	-1.445047e+00	1.189708e+01	3.082477e+01
165           	1.353432e+00	5.626344e-21	4.276224e+01	-4.549174e+01	-9.469077e+00	1.439822e+00	-4.481503e+01	4.616846e+01	1.439822e+00	-1.439822e+00	1.191204e+01	3.085020e+01
166           	1.348653e+00	5.633677e-21	4.280244e+01	-4.553451e+01	-9.474502e+00	1.434737e+00	-4.486019e+01	4.620884e+01	1.434737e+00	-1.434737e+00	1.192672e+01	3.087572e+01
167           	1.344054e+00	5.641315e-21	4.284258e+01	-4.557722e+01	-9.480152e+00	1.429844e+00	-4.490519e+01	4.624924e+01	1.429844e+00	-1.429844e+00	1.194114e+01	3.090144e+01