<?xml version="1.0"?>
<VTKFile type="UnstructuredGrid"  version="0.1"  >
<UnstructuredGrid>
<Piece  NumberOfPoints="265" NumberOfCells="428">
<Points>
<DataArray  type="Float64"  NumberOfComponents="3"  format="ascii">1 0 0  0.999035 0.000297 0  0.9961449999999999 0.001185 0  0.9913380000000001 0.002653 0  0.984631 0.004682 0  0.976046 0.007248 0  0.9656130000000001 0.010321 0  0.953367 0.013863 0  0.939351 0.017833 0  0.923612 0.022187 0  0.906208 0.026874 0  0.887198 0.031843 0  0.866653 0.03704 0  0.844647 0.042411 0  0.82126 0.047899 0  0.796579 0.053449 0  0.770697 0.059005 0  0.743712 0.064511 0  0.715726 0.069913 0  0.686848 0.075158 0  0.657189 0.080194 0  0.626866 0.084971 0  0.595998 0.089439 0  0.564709 0.093554 0  0.533123 0.09726899999999999 0  0.50137 0.100545 0  0.469578 0.103344 0  0.437879 0.105631 0  0.406404 0.107376 0  0.37482 0.108468 0  0.343599 0.108714 0  0.313001 0.10811 0  0.283167 0.10667 0  0.254236 0.104416 0  0.226341 0.101384 0  0.19961 0.097618 0  0.174166 0.093172 0  0.150121 0.08810800000000001 0  0.127583 0.082496 0  0.106649 0.07641000000000001 0  0.087405 0.06993000000000001 0  0.06992900000000001 0.063138 0  0.054289 0.056114 0  0.04054 0.048938 0  0.028731 0.041689 0  0.018897 0.034435 0  0.011066 0.027241 0  0.005256 0.020161 0  0.001476 0.013241 0  -0.000274 0.006513 0  0 0 0  0.002247 -0.006119 0  0.006409 -0.011672 0  0.012457 -0.016658 0  0.020351 -0.021081 0  0.030046 -0.024945 0  0.041493 -0.02826 0  0.054633 -0.031036 0  0.06940399999999999 -0.033287 0  0.085743 -0.035032 0  0.103578 -0.036293 0  0.122838 -0.037096 0  0.143448 -0.037472 0  0.165332 -0.037456 0  0.18841 -0.037089 0  0.212604 -0.036415 0  0.237832 -0.035481 0  0.26401 -0.034339 0  0.291053 -0.033042 0  0.318875 -0.031644 0  0.347385 -0.0302 0  0.37649 -0.028765 0  0.406215 -0.027385 0  0.436788 -0.02594 0  0.467631 -0.02439 0  0.49863 -0.022768 0  0.529667 -0.021106 0  0.560624 -0.019434 0  0.591383 -0.017776 0  0.621824 -0.016155 0  0.651828 -0.014589 0  0.681277 -0.01309 0  0.710053 -0.011669 0  0.738042 -0.010332 0  0.76513 -0.009084999999999999 0  0.791206 -0.007927 0  0.816164 -0.006859 0  0.839901 -0.005879 0  0.862316 -0.004983 0  0.883315 -0.00417 0  0.902809 -0.003435 0  0.920716 -0.002777 0  0.936956 -0.002191 0  0.95146 -0.001676 0  0.964163 -0.001232 0  0.97501 -0.000856 0  0.983952 -0.000548 0  0.990949 -0.000308 0  0.99597 -0.000137 0  0.998991 -3.4e-05 0  0.01253329991339744 0.01897547164079679 0  0.03982543070723868 0.03772075972270655 0  0.0783785901156806 -0.02004245085445233 0  0.1008548741322828 0.05756171654892298 0  0.1543009402781706 -0.01978851486792221 0  0.02846416015276692 -0.01482356599961297 0  0.1896282175898046 0.07430100614708367 0  0.2492221965827851 -0.0109695216456025 0  0.1138782158651784 -0.02061933491489998 0  0.3037703119124598 -0.008587070120496467 0  0.06627570690921551 0.04655302164057148 0  0.1425806522003775 0.06665160354917016 0  0.3605360311712895 -0.004485693081332127 0  0.05033169445377945 -0.01890929498463184 0  0.008991139661807732 -0.005400454570062344 0  0.199936833886425 -0.01628523597650713 0  0.4202674721965854 -0.0005532044748812573 0  0.2698728673270079 0.08259036006239776 0  0.4817135795668898 0.00317015363292442 0  0.3284008341669554 0.0838068061601135 0  0.5436538685338844 0.007323832978192596 0  0.3900792514439599 0.0793917355618259 0  0.4563980228880702 0.07967560564898593 0  0.6051036077046132 0.009218500419690611 0  0.5088344133621687 0.07570312024837957 0  0.6678587767130241 0.05292753937767214 0  0.006860176669712096 0.008741458529635605 0  0.5768106257035253 0.06455774085968416 0  0.7254692186358848 0.04495564457360449 0  0.7789330875849486 0.03430969562160614 0  0.6944885222027086 0.0110258134435411 0  0.829258396014667 0.02687623018338651 0  0.7519321639216233 0.01424805196807962 0  0.8027827371038113 0.01369190389800206 0  0.8707775544622778 0.01652122613619018 0  0.8471242300747798 0.01147621433544322 0  0.8928422680178463 0.01345221840967317 0  0.7232372895527978 0.01084369628452654 0  0.6354894266400369 0.009793153200853527 0  0.6210032080177612 0.0344692683309893 0  0.5904880543291524 0.03637468325898652 0  0.6654013381990573 0.009462913892950018 0  0.3900668158911856 -0.002674564394709808 0  0.3737691225364241 0.0218201259971205 0  0.3443977589365488 0.01996821574779361 0  0.3574695452046142 0.04642553605848552 0  0.3280851311448819 0.04394914833730593 0  0.3871904993025559 0.04841240710964317 0  0.3155871965786229 0.0179479532169856 0  0.2993000060328044 0.04167686398383439 0  0.2874428488209799 0.01591642687415364 0  0.2715198529832459 0.03866484830486308 0  0.260045068865456 0.01410290088876854 0  0.2441694938861097 0.03759151324131559 0  0.2332976975713822 0.01346564136035592 0  0.2182078602096156 0.03528860080564823 0  0.2297902086264838 0.0578982569030554 0  0.2053422918528743 0.008982832244284571 0  0.1928045169871704 0.03231278885831725 0  0.1795024521659387 0.012247212978881 0  0.1687089142160025 0.0318094139335828 0  0.1563094991899997 0.01197793149090205 0  0.145966570378873 0.02979712997747132 0  0.1347283464342364 0.01098473158446286 0  0.1245457365800702 0.02748183994389285 0  0.1148521711131935 0.01013291713920942 0  0.1044682252207694 0.02591288482351941 0  0.09608116722567783 0.008396153717997215 0  0.08622197488094352 0.0233016631957017 0  0.07824478414727999 0.008332894925826744 0  0.06920100249620645 0.02125407068718581 0  0.06216904055672152 0.007826470166489399 0  0.05370073542118001 0.01966331936092378 0  0.04743684814864933 0.007523787463490344 0  0.03964830188763162 0.01805391936762754 0  0.03421202252557529 0.007331105785989581 0  0.04065873471901361 -0.002805926928182466 0  0.02759782267332249 0.01694568529110047 0  0.02365189202618308 0.006515014925702671 0  0.02821588145785513 -0.002769623976868691 0  0.05428290196547884 -0.006320977824144294 0  0.07040256201545204 -0.006188112456170392 0  0.01646954945363648 -0.002554824141976497 0  0.08736831156523089 -0.005758689037678669 0  0.2238202151211332 -0.01152075722781345 0  0.09576596938007766 -0.02057435121498765 0  0.2759239043636135 -0.009486377333862792 0  0.3317585497664868 -0.006166765706174893 0  0.6972557299592285 0.05050144678286026 0  0.1766075809182721 -0.0201583021293162 0  0.03054995366518945 0.02931865568330613 0  0.4508700627393039 0.001376321714711959 0  0.4338336322630137 0.02582403818510731 0  0.5127104445967933 0.005032565577570965 0  0.4958720984438817 0.02929895700270718 0  0.1334223667110517 -0.02128387404217179 0  0.1338809374361141 0.04632931014695507 0  0.5276309045379665 0.03305386683182598 0  0.9873793147033768 0.001667018095374578 0  0.4647897403480999 0.02783161536665155 0  0.4811054640770658 0.05623311032072307 0  0.7513482082702059 0.04082900942962581 0  0.5398558342476044 0.06461625333734182 0  0.5584526812411635 0.03667708804126951 0  0.09395782627309036 0.0394847523689449 0  0.298378036345197 0.0840139558291061 0  0.1652175662023491 0.07043896035968475 0  0.422564986848787 0.0792619702682584 0  0.3582976388845095 0.08453785582521677 0  0.5749508686348022 0.008730684116356538 0  0.9124364196863839 0.01088084373705468 0  0.06290545809173181 -0.0192973060198998 0  0.1209476008393407 0.06226092072267129 0  0.403123269442815 0.02332138519083402 0  0.05111857915432511 0.04117310909541151 0  0.6386140989069243 0.05786781987685332 0  0.01985464180730638 -0.01193253465077006 0  0.1557857432127442 0.04897381288828807 0  0.08242609464066324 0.0519088728168852 0  0.2426288550619272 0.08136827029932026 0  0.03832760234378611 -0.01778292262610819 0  0.01402284578221129 0.005183267961115013 0  0.1790651538009658 0.05159001529200852 0  0.6082966644928939 0.06127991872108555 0  0.1056496987343761 -0.005700632482894962 0  0.214638908562423 0.07827253366850813 0  0.2038983807853467 0.0548148101627634 0  0.1130782859141644 0.04267447821179774 0  0.4140857467104724 0.05107940389956982 0  0.9294939479327375 0.008845349817937788 0  0.2566304329302624 0.05990147922145939 0  0.7779967977220767 0.009047530297537566 0  0.01997215697707387 0.02410684083874332 0  0.9797621871382071 0.002655031249166048 0  0.1241599984161611 -0.005489352072463692 0  0.6512759574578219 0.0325608699365147 0  0.007424579783071209 0.001234580449556835 0  0.07613416052939088 0.03478574634287194 0  0.4465698262818812 0.05182240589117151 0  0.9447000821977478 0.007022833626600715 0  0.284359031945398 0.06128552230405836 0  0.8057626441406853 0.03524516594059894 0  0.1440092409846923 -0.005289221440451785 0  0.6807706354446956 0.03094809253994222 0  0.0120382780492508 0.01232971094983532 0  0.01245831342584704 -0.01049530573615665 0  0.3130274185332351 0.06274386866537264 0  0.9581194569600091 0.005379413219879119 0  0.9689910835079802 0.004028259226436457 0  0.06012032006208454 0.03072733200422783 0  0.01930734865321569 0.01407252965678307 0  0.4835340287138606 0.08281206953841545 0  0.8274662418326814 0.007346581752671191 0  0.1658681432754546 -0.004622947704154698 0  0.7097611958790158 0.02936989300648989 0  0.3427535209965425 0.06419652088904916 0  0.03471528045319665 -0.009118216986583605 0  0.04574581464649172 0.028239269776768 0  0.1862699694590937 -0.004611245464885705 0  0.04582292141364878 -0.01106016405313618 0  0.007114174481925503 0.01465358677143375 0  0.5105840970100058 0.0509195472833332 0  0.3701778584202616 0.06394417476120851 0  0.7355250199208807 0.02798278199391098 0  0.8523454983284877 0.027898557221326 0  </DataArray>
</Points>
<Cells>
<DataArray  type="UInt32"  Name="connectivity"  format="ascii">49 50 236  50 51 236  4 5 233  95 96 233  180 181 211  179 182 216  114 182 236  113 180 211  105 179 216  129 132 231  197 202 261  121 147 228  115 157 184  129 132 201  121 207 228  88 89 134  51 114 236  49 126 236  197 202 203  107 152 154  207 228 238  65 66 184  124 202 261  182 221 236  120 203 209  107 154 184  114 182 245  174 177 190  182 216 245  122 207 238  89 134 136  150 152 186  107 152 186  102 181 211  129 133 241  174 190 257  175 177 178  129 133 231  88 134 135  115 157 258  109 150 186  65 115 184  173 174 175  174 175 177  154 157 184  171 172 173  172 173 174  140 203 209  59 60 185  124 200 251  169 170 171  124 200 261  170 171 172  120 197 203  167 168 169  109 148 150  127 140 223  168 169 170  175 176 179  101 190 257  89 90 136  173 176 180  66 107 184  44 45 190  165 166 167  131 133 252  166 167 168  175 178 179  163 164 165  171 180 181  164 165 166  177 190 232  101 214 257  173 175 176  131 133 241  178 179 182  43 101 214  161 162 163  42 43 214  105 179 256  162 163 164  171 173 180  144 148 187  204 218 237  159 160 161  60 108 185  55 56 220  160 161 162  157 158 159  109 148 187  90 136 210  102 181 183  139 140 223  158 159 160  169 171 181  41 42 110  196 212 227  154 155 157  214 249 257  37 111 206  152 153 154  59 102 185  56 57 113  55 105 220  155 157 158  110 237 249  110 218 237  127 140 203  153 154 155  150 151 152  112 144 187  43 44 101  36 37 206  39 40 103  10 11 136  131 135 264  151 152 153  148 149 150  167 183 224  11 12 134  103 212 227  37 38 111  18 128 188  35 36 106  11 134 136  58 59 102  149 150 151  40 103 218  183 185 224  111 206 217  144 146 148  13 14 131  87 88 135  18 19 188  60 61 108  79 80 138  32 33 117  32 117 205  146 148 149  54 55 105  17 128 201  15 16 129  100 232 250  62 63 104  30 31 119  166 168 204  85 86 133  10 136 210  17 18 128  53 54 216  62 104 195  110 214 249  127 202 203  64 65 115  80 138 141  19 20 125  64 115 189  38 111 212  83 84 132  28 29 121  31 32 205  46 47 100  30 119 208  66 67 107  161 163 242  162 164 196  82 83 137  68 109 186  22 23 127  81 82 130  177 232 250  83 132 137  58 102 211  79 123 138  26 27 122  144 145 146  72 116 142  118 191 199  72 73 116  80 81 141  82 130 137  68 69 109  24 25 124  70 112 187  81 130 141  34 219 225  112 143 144  191 192 199  19 125 188  78 79 123  167 169 183  29 30 208  153 155 156  70 71 112  23 127 202  221 244 250  44 101 190  75 76 193  76 77 120  74 75 118  206 217 222  74 118 191  28 121 207  23 24 202  31 119 205  36 106 206  123 138 139  131 135 252  90 91 210  24 124 202  76 120 193  75 118 193  73 74 191  120 193 197  27 122 207  9 10 210  157 159 258  71 72 142  111 196 212  118 193 194  69 70 187  78 123 209  29 121 208  143 144 145  193 194 197  116 191 192  27 28 207  77 120 209  16 17 201  77 78 209  122 200 238  67 68 186  45 190 232  118 194 199  194 199 200  73 116 191  156 219 225  123 140 209  116 192 213  3 97 198  42 110 214  123 139 140  113 180 259  103 204 218  63 64 189  33 117 219  20 21 215  21 215 223  112 142 143  106 222 226  61 62 195  168 204 237  71 112 142  161 242 253  164 196 227  69 109 187  16 129 201  143 145 147  163 165 234  38 39 212  91 210 229  67 107 186  156 225 226  5 6 248  106 206 222  116 142 213  9 210 229  84 132 231  162 196 217  22 127 223  122 200 251  94 95 248  111 196 217  139 215 223  13 131 264  166 204 227  155 156 226  102 183 185  138 139 235  177 178 250  20 125 215  57 58 211  40 41 218  85 133 231  63 104 189  34 35 225  143 147 213  15 129 241  103 204 227  142 143 213  39 103 212  159 161 253  134 135 264  165 167 224  86 133 252  153 156 230  61 108 195  51 52 114  169 181 183  139 215 235  56 113 220  160 162 217  106 225 226  48 49 126  33 34 219  178 182 221  178 221 250  199 200 238  14 131 241  91 92 229  160 217 222  158 160 222  8 9 229  21 22 223  41 110 218  164 166 227  156 219 230  176 179 256  155 158 226  108 185 224  158 222 226  57 113 211  192 213 228  54 105 216  92 229 239  87 135 252  12 134 264  35 106 225  8 229 239  25 124 251  26 122 251  176 180 259  84 85 231  151 153 230  45 46 232  94 247 248  117 219 230  6 247 248  192 228 238  126 221 236  147 213 228  194 200 261  117 205 240  7 8 239  92 93 239  93 239 247  7 239 247  159 253 258  168 170 237  6 7 247  93 94 247  138 141 235  151 230 240  170 237 249  163 234 242  117 230 240  4 96 198  53 216 245  47 100 260  205 240 246  125 215 235  192 199 238  14 15 241  165 224 234  104 195 242  5 95 233  108 224 234  121 147 262  108 195 234  104 242 253  46 100 232  149 151 240  220 256 259  4 96 233  141 235 243  125 235 243  126 221 244  105 220 256  52 53 245  170 172 249  119 205 246  137 254 263  172 249 257  130 141 243  149 240 246  119 208 255  128 254 263  47 48 260  119 246 255  128 201 263  125 188 243  86 87 252  130 243 254  146 149 246  188 243 254  172 174 257  12 13 264  128 188 254  115 189 258  25 26 251  146 246 255  130 137 254  176 256 259  5 95 248  195 234 242  132 137 263  145 146 255  208 255 262  121 208 262  104 189 253  194 197 261  145 255 262  145 147 262  52 114 245  189 253 258  132 201 263  48 126 260  100 244 260  113 220 259  100 244 250  126 244 260  0 1 99  3 4 198  96 97 198  1 2 98  1 98 99  2 3 97  2 97 98  </DataArray>
<DataArray  type="UInt32"  Name="offsets"  format="ascii">3 6 9 12 15 18 21 24 27 30 33 36 39 42 45 48 51 54 57 60 63 66 69 72 75 78 81 84 87 90 93 96 99 102 105 108 111 114 117 120 123 126 129 132 135 138 141 144 147 150 153 156 159 162 165 168 171 174 177 180 183 186 189 192 195 198 201 204 207 210 213 216 219 222 225 228 231 234 237 240 243 246 249 252 255 258 261 264 267 270 273 276 279 282 285 288 291 294 297 300 303 306 309 312 315 318 321 324 327 330 333 336 339 342 345 348 351 354 357 360 363 366 369 372 375 378 381 384 387 390 393 396 399 402 405 408 411 414 417 420 423 426 429 432 435 438 441 444 447 450 453 456 459 462 465 468 471 474 477 480 483 486 489 492 495 498 501 504 507 510 513 516 519 522 525 528 531 534 537 540 543 546 549 552 555 558 561 564 567 570 573 576 579 582 585 588 591 594 597 600 603 606 609 612 615 618 621 624 627 630 633 636 639 642 645 648 651 654 657 660 663 666 669 672 675 678 681 684 687 690 693 696 699 702 705 708 711 714 717 720 723 726 729 732 735 738 741 744 747 750 753 756 759 762 765 768 771 774 777 780 783 786 789 792 795 798 801 804 807 810 813 816 819 822 825 828 831 834 837 840 843 846 849 852 855 858 861 864 867 870 873 876 879 882 885 888 891 894 897 900 903 906 909 912 915 918 921 924 927 930 933 936 939 942 945 948 951 954 957 960 963 966 969 972 975 978 981 984 987 990 993 996 999 1002 1005 1008 1011 1014 1017 1020 1023 1026 1029 1032 1035 1038 1041 1044 1047 1050 1053 1056 1059 1062 1065 1068 1071 1074 1077 1080 1083 1086 1089 1092 1095 1098 1101 1104 1107 1110 1113 1116 1119 1122 1125 1128 1131 1134 1137 1140 1143 1146 1149 1152 1155 1158 1161 1164 1167 1170 1173 1176 1179 1182 1185 1188 1191 1194 1197 1200 1203 1206 1209 1212 1215 1218 1221 1224 1227 1230 1233 1236 1239 1242 1245 1248 1251 1254 1257 1260 1263 1266 1269 1272 1275 1278 1281 1284 </DataArray>
<DataArray  type="UInt8"  Name="types"  format="ascii">5 5 5 5 5 5 5 5 5 5 5 5 5 5 5 5 5 5 5 5 5 5 5 5 5 5 5 5 5 5 5 5 5 5 5 5 5 5 5 5 5 5 5 5 5 5 5 5 5 5 5 5 5 5 5 5 5 5 5 5 5 5 5 5 5 5 5 5 5 5 5 5 5 5 5 5 5 5 5 5 5 5 5 5 5 5 5 5 5 5 5 5 5 5 5 5 5 5 5 5 5 5 5 5 5 5 5 5 5 5 5 5 5 5 5 5 5 5 5 5 5 5 5 5 5 5 5 5 5 5 5 5 5 5 5 5 5 5 5 5 5 5 5 5 5 5 5 5 5 5 5 5 5 5 5 5 5 5 5 5 5 5 5 5 5 5 5 5 5 5 5 5 5 5 5 5 5 5 5 5 5 5 5 5 5 5 5 5 5 5 5 5 5 5 5 5 5 5 5 5 5 5 5 5 5 5 5 5 5 5 5 5 5 5 5 5 5 5 5 5 5 5 5 5 5 5 5 5 5 5 5 5 5 5 5 5 5 5 5 5 5 5 5 5 5 5 5 5 5 5 5 5 5 5 5 5 5 5 5 5 5 5 5 5 5 5 5 5 5 5 5 5 5 5 5 5 5 5 5 5 5 5 5 5 5 5 5 5 5 5 5 5 5 5 5 5 5 5 5 5 5 5 5 5 5 5 5 5 5 5 5 5 5 5 5 5 5 5 5 5 5 5 5 5 5 5 5 5 5 5 5 5 5 5 5 5 5 5 5 5 5 5 5 5 5 5 5 5 5 5 5 5 5 5 5 5 5 5 5 5 5 5 5 5 5 5 5 5 5 5 5 5 5 5 5 5 5 5 5 5 5 5 5 5 5 5 5 5 5 5 5 5 5 5 5 5 5 5 5 5 5 5 5 5 5 5 5 5 5 5 5 5 5 5 5 5 5 5 5 5 5 5 5 5 5 5 5 5 </DataArray>
</Cells>
<PointData  Scalars="f_5"> 
<DataArray  type="Float64"  Name="f_5"  format="ascii">0.0000000000000000e+00  0.0000000000000000e+00  0.0000000000000000e+00  0.0000000000000000e+00  0.0000000000000000e+00  0.0000000000000000e+00  0.0000000000000000e+00  0.0000000000000000e+00  0.0000000000000000e+00  0.0000000000000000e+00  0.0000000000000000e+00  0.0000000000000000e+00  0.0000000000000000e+00  0.0000000000000000e+00  0.0000000000000000e+00  0.0000000000000000e+00  0.0000000000000000e+00  0.0000000000000000e+00  0.0000000000000000e+00  0.0000000000000000e+00  0.0000000000000000e+00  0.0000000000000000e+00  0.0000000000000000e+00  0.0000000000000000e+00  0.0000000000000000e+00  0.0000000000000000e+00  0.0000000000000000e+00  0.0000000000000000e+00  0.0000000000000000e+00  0.0000000000000000e+00  0.0000000000000000e+00  0.0000000000000000e+00  0.0000000000000000e+00  0.0000000000000000e+00  0.0000000000000000e+00  0.0000000000000000e+00  0.0000000000000000e+00  0.0000000000000000e+00  0.0000000000000000e+00  0.0000000000000000e+00  0.0000000000000000e+00  0.0000000000000000e+00  0.0000000000000000e+00  0.0000000000000000e+00  0.0000000000000000e+00  0.0000000000000000e+00  0.0000000000000000e+00  0.0000000000000000e+00  0.0000000000000000e+00  0.0000000000000000e+00  0.0000000000000000e+00  0.0000000000000000e+00  0.0000000000000000e+00  0.0000000000000000e+00  0.0000000000000000e+00  0.0000000000000000e+00  0.0000000000000000e+00  0.0000000000000000e+00  0.0000000000000000e+00  0.0000000000000000e+00  0.0000000000000000e+00  0.0000000000000000e+00  0.0000000000000000e+00  0.0000000000000000e+00  0.0000000000000000e+00  0.0000000000000000e+00  0.0000000000000000e+00  0.0000000000000000e+00  0.0000000000000000e+00  0.0000000000000000e+00  0.0000000000000000e+00  0.0000000000000000e+00  0.0000000000000000e+00  0.0000000000000000e+00  0.0000000000000000e+00  0.0000000000000000e+00  0.0000000000000000e+00  0.0000000000000000e+00  0.0000000000000000e+00  0.0000000000000000e+00  0.0000000000000000e+00  0.0000000000000000e+00  0.0000000000000000e+00  0.0000000000000000e+00  0.0000000000000000e+00  0.0000000000000000e+00  0.0000000000000000e+00  0.0000000000000000e+00  0.0000000000000000e+00  0.0000000000000000e+00  0.0000000000000000e+00  0.0000000000000000e+00  0.0000000000000000e+00  0.0000000000000000e+00  0.0000000000000000e+00  0.0000000000000000e+00  0.0000000000000000e+00  0.0000000000000000e+00  0.0000000000000000e+00  0.0000000000000000e+00  0.0000000000000000e+00  0.0000000000000000e+00  0.0000000000000000e+00  0.0000000000000000e+00  0.0000000000000000e+00  0.0000000000000000e+00  0.0000000000000000e+00  0.0000000000000000e+00  0.0000000000000000e+00  0.0000000000000000e+00  0.0000000000000000e+00  0.0000000000000000e+00  0.0000000000000000e+00  0.0000000000000000e+00  0.0000000000000000e+00  0.0000000000000000e+00  0.0000000000000000e+00  0.0000000000000000e+00  0.0000000000000000e+00  0.0000000000000000e+00  0.0000000000000000e+00  0.0000000000000000e+00  0.0000000000000000e+00  0.0000000000000000e+00  0.0000000000000000e+00  0.0000000000000000e+00  0.0000000000000000e+00  0.0000000000000000e+00  0.0000000000000000e+00  0.0000000000000000e+00  0.0000000000000000e+00  0.0000000000000000e+00  0.0000000000000000e+00  0.0000000000000000e+00  0.0000000000000000e+00  0.0000000000000000e+00  0.0000000000000000e+00  0.0000000000000000e+00  0.0000000000000000e+00  0.0000000000000000e+00  0.0000000000000000e+00  0.0000000000000000e+00  0.0000000000000000e+00  0.0000000000000000e+00  0.0000000000000000e+00  0.0000000000000000e+00  0.0000000000000000e+00  0.0000000000000000e+00  0.0000000000000000e+00  0.0000000000000000e+00  0.0000000000000000e+00  0.0000000000000000e+00  0.0000000000000000e+00  0.0000000000000000e+00  0.0000000000000000e+00  0.0000000000000000e+00  0.0000000000000000e+00  0.0000000000000000e+00  0.0000000000000000e+00  0.0000000000000000e+00  0.0000000000000000e+00  0.0000000000000000e+00  0.0000000000000000e+00  0.0000000000000000e+00  0.0000000000000000e+00  0.0000000000000000e+00  0.0000000000000000e+00  0.0000000000000000e+00  0.0000000000000000e+00  0.0000000000000000e+00  0.0000000000000000e+00  0.0000000000000000e+00  0.0000000000000000e+00  0.0000000000000000e+00  0.0000000000000000e+00  0.0000000000000000e+00  0.0000000000000000e+00  0.0000000000000000e+00  0.0000000000000000e+00  0.0000000000000000e+00  0.0000000000000000e+00  0.0000000000000000e+00  0.0000000000000000e+00  0.0000000000000000e+00  0.0000000000000000e+00  0.0000000000000000e+00  0.0000000000000000e+00  0.0000000000000000e+00  0.0000000000000000e+00  0.0000000000000000e+00  0.0000000000000000e+00  0.0000000000000000e+00  0.0000000000000000e+00  0.0000000000000000e+00  0.0000000000000000e+00  0.0000000000000000e+00  0.0000000000000000e+00  0.0000000000000000e+00  0.0000000000000000e+00  0.0000000000000000e+00  0.0000000000000000e+00  0.0000000000000000e+00  0.0000000000000000e+00  0.0000000000000000e+00  0.0000000000000000e+00  0.0000000000000000e+00  0.0000000000000000e+00  0.0000000000000000e+00  0.0000000000000000e+00  0.0000000000000000e+00  0.0000000000000000e+00  0.0000000000000000e+00  0.0000000000000000e+00  0.0000000000000000e+00  0.0000000000000000e+00  0.0000000000000000e+00  0.0000000000000000e+00  0.0000000000000000e+00  0.0000000000000000e+00  0.0000000000000000e+00  0.0000000000000000e+00  0.0000000000000000e+00  0.0000000000000000e+00  0.0000000000000000e+00  0.0000000000000000e+00  0.0000000000000000e+00  0.0000000000000000e+00  0.0000000000000000e+00  0.0000000000000000e+00  0.0000000000000000e+00  0.0000000000000000e+00  0.0000000000000000e+00  0.0000000000000000e+00  0.0000000000000000e+00  0.0000000000000000e+00  0.0000000000000000e+00  0.0000000000000000e+00  0.0000000000000000e+00  0.0000000000000000e+00  0.0000000000000000e+00  0.0000000000000000e+00  0.0000000000000000e+00  0.0000000000000000e+00  0.0000000000000000e+00  0.0000000000000000e+00  0.0000000000000000e+00  0.0000000000000000e+00  0.0000000000000000e+00  0.0000000000000000e+00  0.0000000000000000e+00  0.0000000000000000e+00  0.0000000000000000e+00  0.0000000000000000e+00  0.0000000000000000e+00  0.0000000000000000e+00  0.0000000000000000e+00  0.0000000000000000e+00  0.0000000000000000e+00  0.0000000000000000e+00  0.0000000000000000e+00  0.0000000000000000e+00  0.0000000000000000e+00  0.0000000000000000e+00  0.0000000000000000e+00  0.0000000000000000e+00  </DataArray> 
</PointData> 
</Piece>
</UnstructuredGrid>
</VTKFile>