<?xml version="1.0"?>
<VTKFile type="UnstructuredGrid"  version="0.1"  >
<UnstructuredGrid>
<Piece  NumberOfPoints="255" NumberOfCells="440">
<Points>
<DataArray  type="Float64"  NumberOfComponents="3"  format="ascii">0 1 0  0 0 0  4 0 0  4 1 0  0 0.8571428571424611 0  0 0.7142857142863099 0  0 0.5714285714301588 0  0 0.4285714285732146 0  0 0.2857142857154765 0  0 0.1428571428577383 0  0.1481481481478605 0 0  0.2962962962957117 0 0  0.4444444444436329 0 0  0.5925925925914256 0 0  0.7407407407391412 0 0  0.8888888888868569 0 0  1.037037037034573 0 0  1.185185185182288 0 0  1.333333333330004 0 0  1.481481481477719 0 0  1.629629629625435 0 0  1.77777777777315 0 0  1.925925925920866 0 0  2.074074074068993 0 0  2.222222222217531 0 0  2.370370370366069 0 0  2.518518518514608 0 0  2.666666666663147 0 0  2.814814814811686 0 0  2.962962962960225 0 0  3.111111111108765 0 0  3.259259259257304 0 0  3.407407407405843 0 0  3.555555555554382 0 0  3.703703703702921 0 0  3.851851851851461 0 0  4 0.1428571428568666 0  4 0.2857142857135924 0  4 0.4285714285703181 0  4 0.5714285714274404 0  4 0.71428571428496 0  4 0.8571428571424801 0  3.851851851851236 1 0  3.703703703702471 1 0  3.555555555553707 1 0  3.40740740740597 1 0  3.259259259258851 1 0  3.111111111111731 1 0  2.962962962964611 1 0  2.814814814817491 1 0  2.666666666670372 1 0  2.518518518523252 1 0  2.370370370376132 1 0  2.222222222229012 1 0  2.074074074081893 1 0  1.92592592593395 1 0  1.777777777785186 1 0  1.629629629636422 1 0  1.481481481487656 1 0  1.333333333338891 1 0  1.185185185190125 1 0  1.03703703704136 1 0  0.8888888888925934 1 0  0.7407407407438278 1 0  0.5925925925950621 1 0  0.4444444444462965 1 0  0.2962962962975313 1 0  0.1481481481487656 1 0  3.862740102754996 0.4929607401641039 0  0.1312681874652606 0.4964417136651201 0  3.332817706856704 0.8703071322246525 0  2.887753122488077 0.8701450284570087 0  2.443487405183093 0.8711669539418981 0  1.999795891933913 0.8715789094415117 0  0.6681533077364606 0.1273746894452846 0  1.112712245038972 0.1273759727977507 0  1.557211731072868 0.1273439283559488 0  2.298046325483534 0.1272896762175376 0  2.742546910968051 0.1272572638972836 0  3.18492151078542 0.1257487715222534 0  1.259259259264508 0.8716999401795487 0  0.8141269575571001 0.871748208808961 0  1.703703703710804 0.8716999401795495 0  1.99999999999493 0.1283000598197202 0  3.481481481480113 0.1283000598202553 0  0.5183010486676379 0.8718704939532351 0  3.626983680793915 0.8696834438519598 0  0.3709334268223895 0.1259182595570439 0  0.2271602898922483 0.8758962262944544 0  3.777219125309514 0.1148154048090896 0  3.893755545506979 0.7833611922587382 0  0.1302988683375971 0.2230635673432318 0  0.3706108561219911 0.8718387846920918 0  0.4427622354546315 0.7446921793789005 0  0.5915485036151791 0.7440008914045777 0  0.5166825730910314 0.6169777134323685 0  0.6650390819448502 0.616189623395358 0  0.5909719578598287 0.4908042560272739 0  0.7405353564827172 0.4916376509977303 0  0.4429150955837842 0.4898967725848503 0  0.8131698480879932 0.6163375809048619 0  0.8887097972344478 0.4894489969238973 0  0.9611582136734542 0.615936298354707 0  1.034902889965888 0.4900144281886006 0  1.108868917869217 0.6158026059921886 0  1.18452787857015 0.4909728560609697 0  1.257138785759355 0.615669426945761 0  1.332899964600871 0.4886132780409088 0  1.405316700389525 0.6151745225702796 0  1.479131609758492 0.4891966655608547 0  1.553134226477781 0.6150372787460121 0  1.628904405390447 0.4902214140845411 0  1.701488112598437 0.6149602868009577 0  1.777345531608445 0.4877940248375572 0  1.84971423743412 0.6143975361144656 0  1.923539955144657 0.4859379430483028 0  1.99738790995082 0.6136912195371759 0  2.071281360792658 0.4853096880048302 0  2.1455469504028 0.6134028873509707 0  2.219367230050623 0.4874693746921329 0  2.293685783436379 0.6136524636288965 0  2.369614194513657 0.4888838524884764 0  2.442181521169389 0.6137298130271135 0  2.518164441593275 0.4864190546441897 0  2.5904538429914 0.6129942302636635 0  2.664293611934621 0.487060658625931 0  2.738286172525291 0.6127782466306129 0  2.814221723740931 0.4881783082096715 0  2.886678055026568 0.6127283642657032 0  2.96270165120097 0.4855726552742464 0  3.034916962956818 0.6120782895834742 0  3.108776927607467 0.4836231351809608 0  3.182537326824797 0.6112750498545132 0  3.256425314625732 0.4830410259500441 0  3.330360110373509 0.6111858539653696 0  3.404261825224407 0.482664787257286 0  3.478010133137043 0.6108728609656625 0  3.55172029652059 0.4830132527072234 0  3.625893480473057 0.6104138761639804 0  0.9645966463913138 0.3690452854997702 0  0.5183889540949079 0.3665909754157619 0  1.408980582580499 0.3684600478847651 0  1.849378274306512 0.3590884596795371 0  2.594461256956921 0.3669389531994505 0  3.034626873867651 0.3568531219819064 0  2.146686786055542 0.3633315843322847 0  3.330457060927734 0.3560796184249773 0  0.370206534788542 0.3650520639476783 0  3.109520089431316 0.739980231377463 0  2.664594205037794 0.7413561313488205 0  2.220049031342229 0.7417627647088068 0  1.479172063645918 0.7430057736912071 0  1.035673355171422 0.7436700187075359 0  3.702104017118272 0.4850819543905852 0  3.625700647289322 0.3578240270713945 0  3.77309417702588 0.3568828319354966 0  0.2920580720841066 0.492185300319886 0  0.2238723527438638 0.3625568130709618 0  0.2212906827887531 0.6226987629677405 0  3.764662257822288 0.6135412830264968 0  3.552549782675384 0.7394752624387283 0  0.3657255530083073 0.6193949138876422 0  1.92357488098976 0.7421369216036061 0  3.628736924314228 0.1212093272324029 0  3.690117122963653 0.7371043212168883 0  3.479846020951469 0.8701694802706191 0  3.405070776813465 0.7400133943156796 0  3.479173152111032 0.3589068016709687 0  0.6660906298624544 0.8718516112341685 0  0.5201995201292182 0.12495556863116 0  3.333321893896665 0.1268220822067023 0  3.182742192716387 0.358880663590525 0  2.960603117696146 0.7400409582314382 0  2.812457354612206 0.7403400561853186 0  2.7393565068618 0.8701463103002294 0  2.516716004545637 0.7422679241612196 0  2.147942901058808 0.8715559869323923 0  2.29595063218525 0.8714784149804581 0  2.368353386002531 0.7422077196728254 0  2.149629093785811 0.1249692946888503 0  1.851851851847009 0.1283000598195423 0  1.703426815186586 0.1260342031412474 0  1.631942301627196 0.2475271592544352 0  1.55555555556217 0.8716999401796264 0  2.444182589789911 0.1259003974313177 0  2.372885682689234 0.2469978608841406 0  2.594102627318696 0.124452264018124 0  3.036748216777666 0.1269845607612613 0  2.88859299620186 0.1256008921802175 0  2.817452034689418 0.2466438317095893 0  1.110514667908694 0.8717860249115343 0  0.9643378491739237 0.1252653550206229 0  0.8147995029747143 0.1256821532154228 0  0.7430910853089006 0.2480585083484485 0  1.408795846246879 0.1251529246299749 0  1.259213920595674 0.1255896294686344 0  1.187452521252326 0.2477548085978862 0  3.036816354972022 0.8711222273948745 0  3.184620222971666 0.8690001268512875 0  2.071892942417431 0.7419739737323019 0  1.997219271299868 0.3616938667884491 0  1.851639266735015 0.8716148268467793 0  1.775432928716905 0.7422565568218084 0  1.627500774079996 0.7425907469762949 0  1.407128820273046 0.8719257966465084 0  0.7392339359959194 0.7434900732382376 0  1.331056092503806 0.7427176811717654 0  1.183751846412834 0.7435576163180555 0  0.9622016040260811 0.8717398882607752 0  0.8874153377043732 0.7436531254051153 0  3.257487705545243 0.7402936314314942 0  2.591558742038872 0.871243110956523 0  0.2940299731254128 0.7457873980919763 0  0.1359815366356112 0.7635029429960618 0  3.780329726107285 0.8570862849735272 0  0.2245175194267566 0.1162615456395351 0  0.2938432785399199 0.2396697578002645 0  3.87315201029284 0.2218682757502287 0  0.5929474369815975 0.247524985169418 0  0.4435404467960935 0.2451104970150418 0  1.037203170141008 0.2478398089977148 0  1.481580274957428 0.2475350413092041 0  2.221857876391387 0.246308259438744 0  2.666898840626228 0.2466048691359797 0  0.6681906008758638 0.3684613108109536 0  0.8151742012245802 0.3685860722715804 0  1.258688017009734 0.3688241271656648 0  0.8898670758690734 0.2474128638922599 0  1.11122852055507 0.369075219085101 0  1.702418726626715 0.3668179607168601 0  3.705661173050558 0.23552454419387 0  1.33411852710709 0.2472194298426882 0  1.555492983490129 0.3682930481351101 0  3.554693464275172 0.2404864660435175 0  2.443918797111631 0.3673375384456083 0  3.407407407405781 0.241154036272214 0  1.775102811643928 0.2443015379737031 0  1.924043625445703 0.2442286960847641 0  2.887717561591845 0.365189278410317 0  2.073239442162206 0.2448052935254688 0  2.295721761135345 0.3667214117135645 0  2.519408299082103 0.2463719805191035 0  2.74084083825666 0.3667693165484898 0  3.258519872384941 0.2412252028743386 0  3.108408012854587 0.2425126953613959 0  2.959670252392292 0.2427634126704323 0  3.901797258014743 0.357199512426748 0  3.891935704116536 0.6455374408207425 0  0.09708788170934432 0.359269561673601 0  0.09922057341044847 0.6355778134400518 0  0.1093019826266112 0.8920387826651649 0  0.1051260519426112 0.103630622551749 0  3.898632503682673 0.8975168590179845 0  3.895455896522888 0.1030271204389313 0  3.803263545181054 0.7232574060533363 0  </DataArray>
</Points>
<Cells>
<DataArray  type="UInt32"  Name="connectivity"  format="ascii">155 217 230  68 153 155  91 157 216  69 156 157  4 5 213  89 217 230  68 153 159  69 156 158  4 213 250  155 217 246  91 157 248  68 155 246  91 215 216  69 157 248  86 160 164  95 99 161  138 153 159  156 158 161  86 164 214  86 160 165  46 47 198  92 93 212  186 223 241  179 222 239  44 45 165  194 221 231  99 156 161  164 214 254  191 220 227  138 159 164  93 95 161  148 172 197  71 173 174  71 172 197  169 218 219  49 71 174  71 172 173  149 175 211  70 198 210  93 161 212  70 166 210  44 86 165  134 136 166  49 50 174  47 197 198  46 70 198  127 238 242  45 70 165  121 234 240  136 160 166  111 229 232  105 226 228  72 175 211  72 175 178  150 176 177  98 224 225  150 176 199  150 177 178  73 176 199  66 88 92  88 92 212  73 162 199  72 177 178  73 162 201  148 197 198  33 84 163  162 201 202  160 165 166  82 201 202  137 138 153  147 156 157  82 202 203  99 147 156  82 183 203  151 204 206  63 81 168  135 146 167  136 137 138  80 204 206  66 67 88  34 35 89  120 122 178  34 89 163  153 154 155  135 136 137  149 174 211  151 183 203  85 92 93  65 85 92  81 168 205  152 208 209  151 183 204  81 208 209  80 206 207  63 64 168  80 190 207  99 140 147  32 84 170  43 44 86  11 12 87  95 97 99  13 74 169  138 160 164  65 66 92  120 150 178  122 175 178  12 87 169  64 65 85  32 33 84  134 135 136  70 165 166  133 134 135  137 153 154  50 174 211  33 34 163  131 144 171  31 79 170  31 32 170  158 212 213  133 135 146  132 133 134  152 190 208  64 85 168  131 132 133  74 192 193  97 99 140  152 190 207  135 137 167  12 13 169  129 130 131  85 93 94  130 131 132  134 166 210  15 16 191  16 75 191  75 195 196  14 74 192  131 133 171  60 80 190  60 61 190  15 191 192  129 131 144  18 19 194  19 76 194  76 181 182  17 75 195  57 82 183  57 58 183  47 48 197  48 71 197  128 130 172  18 194 195  149 173 174  14 15 192  126 149 173  128 172 173  22 83 180  21 22 180  20 76 181  21 180 181  17 18 195  126 128 173  53 176 177  77 184 185  54 73 176  53 54 176  20 21 181  52 53 177  52 72 177  78 188 189  25 77 184  25 26 184  27 78 186  26 184 186  115 142 200  30 79 187  29 30 187  28 78 188  29 187 188  26 27 186  28 29 188  23 83 179  23 24 179  54 55 73  24 77 179  22 23 83  56 57 82  30 31 79  27 28 78  24 25 77  59 60 80  62 63 81  19 20 76  13 14 74  16 17 75  51 52 72  48 49 71  45 46 70  128 129 130  127 128 129  93 94 95  126 127 128  124 126 149  123 125 143  125 126 127  124 125 126  124 149 175  122 124 175  123 124 125  122 123 124  116 118 199  115 117 200  121 122 123  120 121 122  118 120 150  119 120 121  116 162 199  117 119 145  118 119 120  118 150 199  117 118 119  116 117 118  117 145 200  113 115 142  114 116 162  130 148 172  115 116 117  136 138 160  114 115 116  113 114 115  112 113 114  111 112 113  130 132 148  110 111 112  108 110 151  107 109 141  109 110 111  55 73 201  56 82 201  108 109 110  107 108 109  106 107 108  55 56 201  105 106 107  104 105 106  102 104 152  101 103 139  103 104 105  81 205 209  102 103 104  114 162 202  133 146 171  101 102 103  100 101 102  110 151 203  95 96 97  112 114 202  96 98 100  98 100 101  96 97 98  58 183 204  59 80 204  112 202 203  94 95 96  108 151 206  110 112 203  61 190 208  158 161 212  62 81 208  85 94 168  104 152 207  148 198 210  102 152 209  58 59 204  94 96 205  88 212 213  94 168 205  137 154 167  106 108 206  50 51 211  132 148 210  96 100 205  106 206 207  104 106 207  90 214 254  61 62 208  100 102 209  100 205 209  8 9 91  40 41 90  6 7 69  38 39 68  132 134 210  51 72 211  145 222 239  141 221 231  143 223 241  139 220 227  140 218 219  182 229 232  185 234 240  189 238 242  196 226 228  193 224 225  42 43 214  10 11 215  74 169 218  75 191 220  76 194 221  77 179 222  78 186 223  98 101 225  97 140 224  105 107 226  103 139 228  111 113 229  68 159 247  109 141 232  121 123 234  127 129 238  119 145 240  125 143 242  0 67 250  0 4 250  43 86 214  11 87 215  192 193 227  195 196 231  181 182 236  36 37 217  184 185 241  147 157 216  188 189 245  147 216 219  38 68 246  40 90 247  39 68 247  87 169 219  74 193 218  89 163 230  87 216 219  69 158 249  8 91 248  7 69 248  167 233 235  140 147 219  75 196 220  140 218 224  171 243 244  79 243 244  76 182 221  191 192 227  139 220 228  146 167 235  154 167 233  194 195 231  77 185 222  141 221 232  88 213 250  78 189 223  180 181 236  180 236 237  83 180 237  97 98 224  101 139 225  83 237 239  83 179 239  145 222 240  184 186 241  1 10 251  3 42 252  143 223 242  84 163 233  146 235 243  107 141 226  84 233 235  187 244 245  154 155 230  103 105 228  146 171 243  187 188 245  79 187 244  113 142 229  1 9 251  3 41 252  2 35 253  109 111 232  84 170 235  87 215 216  123 143 234  142 236 237  142 200 237  193 225 227  2 36 253  170 235 243  200 237 239  129 144 238  145 200 239  119 121 240  37 217 246  144 171 244  125 127 242  144 244 245  79 170 243  196 226 231  182 229 236  185 234 241  154 230 233  189 238 245  6 69 249  163 230 233  193 218 224  5 213 249  196 220 228  182 221 232  185 222 240  139 225 227  189 223 242  37 38 246  39 40 247  141 226 231  142 229 236  7 8 248  5 6 249  143 234 241  144 238 245  158 213 249  42 214 252  10 215 251  35 89 253  67 88 250  90 214 252  91 215 251  90 247 254  159 164 254  9 91 251  41 90 252  89 217 253  36 217 253  159 247 254  </DataArray>
<DataArray  type="UInt32"  Name="offsets"  format="ascii">3 6 9 12 15 18 21 24 27 30 33 36 39 42 45 48 51 54 57 60 63 66 69 72 75 78 81 84 87 90 93 96 99 102 105 108 111 114 117 120 123 126 129 132 135 138 141 144 147 150 153 156 159 162 165 168 171 174 177 180 183 186 189 192 195 198 201 204 207 210 213 216 219 222 225 228 231 234 237 240 243 246 249 252 255 258 261 264 267 270 273 276 279 282 285 288 291 294 297 300 303 306 309 312 315 318 321 324 327 330 333 336 339 342 345 348 351 354 357 360 363 366 369 372 375 378 381 384 387 390 393 396 399 402 405 408 411 414 417 420 423 426 429 432 435 438 441 444 447 450 453 456 459 462 465 468 471 474 477 480 483 486 489 492 495 498 501 504 507 510 513 516 519 522 525 528 531 534 537 540 543 546 549 552 555 558 561 564 567 570 573 576 579 582 585 588 591 594 597 600 603 606 609 612 615 618 621 624 627 630 633 636 639 642 645 648 651 654 657 660 663 666 669 672 675 678 681 684 687 690 693 696 699 702 705 708 711 714 717 720 723 726 729 732 735 738 741 744 747 750 753 756 759 762 765 768 771 774 777 780 783 786 789 792 795 798 801 804 807 810 813 816 819 822 825 828 831 834 837 840 843 846 849 852 855 858 861 864 867 870 873 876 879 882 885 888 891 894 897 900 903 906 909 912 915 918 921 924 927 930 933 936 939 942 945 948 951 954 957 960 963 966 969 972 975 978 981 984 987 990 993 996 999 1002 1005 1008 1011 1014 1017 1020 1023 1026 1029 1032 1035 1038 1041 1044 1047 1050 1053 1056 1059 1062 1065 1068 1071 1074 1077 1080 1083 1086 1089 1092 1095 1098 1101 1104 1107 1110 1113 1116 1119 1122 1125 1128 1131 1134 1137 1140 1143 1146 1149 1152 1155 1158 1161 1164 1167 1170 1173 1176 1179 1182 1185 1188 1191 1194 1197 1200 1203 1206 1209 1212 1215 1218 1221 1224 1227 1230 1233 1236 1239 1242 1245 1248 1251 1254 1257 1260 1263 1266 1269 1272 1275 1278 1281 1284 1287 1290 1293 1296 1299 1302 1305 1308 1311 1314 1317 1320 </DataArray>
<DataArray  type="UInt8"  Name="types"  format="ascii">5 5 5 5 5 5 5 5 5 5 5 5 5 5 5 5 5 5 5 5 5 5 5 5 5 5 5 5 5 5 5 5 5 5 5 5 5 5 5 5 5 5 5 5 5 5 5 5 5 5 5 5 5 5 5 5 5 5 5 5 5 5 5 5 5 5 5 5 5 5 5 5 5 5 5 5 5 5 5 5 5 5 5 5 5 5 5 5 5 5 5 5 5 5 5 5 5 5 5 5 5 5 5 5 5 5 5 5 5 5 5 5 5 5 5 5 5 5 5 5 5 5 5 5 5 5 5 5 5 5 5 5 5 5 5 5 5 5 5 5 5 5 5 5 5 5 5 5 5 5 5 5 5 5 5 5 5 5 5 5 5 5 5 5 5 5 5 5 5 5 5 5 5 5 5 5 5 5 5 5 5 5 5 5 5 5 5 5 5 5 5 5 5 5 5 5 5 5 5 5 5 5 5 5 5 5 5 5 5 5 5 5 5 5 5 5 5 5 5 5 5 5 5 5 5 5 5 5 5 5 5 5 5 5 5 5 5 5 5 5 5 5 5 5 5 5 5 5 5 5 5 5 5 5 5 5 5 5 5 5 5 5 5 5 5 5 5 5 5 5 5 5 5 5 5 5 5 5 5 5 5 5 5 5 5 5 5 5 5 5 5 5 5 5 5 5 5 5 5 5 5 5 5 5 5 5 5 5 5 5 5 5 5 5 5 5 5 5 5 5 5 5 5 5 5 5 5 5 5 5 5 5 5 5 5 5 5 5 5 5 5 5 5 5 5 5 5 5 5 5 5 5 5 5 5 5 5 5 5 5 5 5 5 5 5 5 5 5 5 5 5 5 5 5 5 5 5 5 5 5 5 5 5 5 5 5 5 5 5 5 5 5 5 5 5 5 5 5 5 5 5 5 5 5 5 5 5 5 5 5 5 5 5 5 5 5 5 5 5 5 5 5 5 5 5 5 5 5 5 5 5 5 5 5 5 5 5 5 5 5 </DataArray>
</Cells>
<PointData  Scalars="f_5"> 
<DataArray  type="Float64"  Name="f_5"  format="ascii">0.0000000000000000e+00  0.0000000000000000e+00  0.0000000000000000e+00  0.0000000000000000e+00  0.0000000000000000e+00  0.0000000000000000e+00  0.0000000000000000e+00  0.0000000000000000e+00  0.0000000000000000e+00  0.0000000000000000e+00  0.0000000000000000e+00  0.0000000000000000e+00  0.0000000000000000e+00  0.0000000000000000e+00  0.0000000000000000e+00  0.0000000000000000e+00  0.0000000000000000e+00  0.0000000000000000e+00  0.0000000000000000e+00  0.0000000000000000e+00  0.0000000000000000e+00  0.0000000000000000e+00  0.0000000000000000e+00  0.0000000000000000e+00  0.0000000000000000e+00  0.0000000000000000e+00  0.0000000000000000e+00  0.0000000000000000e+00  0.0000000000000000e+00  0.0000000000000000e+00  0.0000000000000000e+00  0.0000000000000000e+00  0.0000000000000000e+00  0.0000000000000000e+00  0.0000000000000000e+00  0.0000000000000000e+00  0.0000000000000000e+00  0.0000000000000000e+00  0.0000000000000000e+00  0.0000000000000000e+00  0.0000000000000000e+00  0.0000000000000000e+00  0.0000000000000000e+00  0.0000000000000000e+00  0.0000000000000000e+00  0.0000000000000000e+00  0.0000000000000000e+00  0.0000000000000000e+00  0.0000000000000000e+00  0.0000000000000000e+00  0.0000000000000000e+00  0.0000000000000000e+00  0.0000000000000000e+00  0.0000000000000000e+00  0.0000000000000000e+00  0.0000000000000000e+00  0.0000000000000000e+00  0.0000000000000000e+00  0.0000000000000000e+00  0.0000000000000000e+00  0.0000000000000000e+00  0.0000000000000000e+00  0.0000000000000000e+00  0.0000000000000000e+00  0.0000000000000000e+00  0.0000000000000000e+00  0.0000000000000000e+00  0.0000000000000000e+00  0.0000000000000000e+00  0.0000000000000000e+00  0.0000000000000000e+00  0.0000000000000000e+00  0.0000000000000000e+00  0.0000000000000000e+00  0.0000000000000000e+00  0.0000000000000000e+00  0.0000000000000000e+00  0.0000000000000000e+00  0.0000000000000000e+00  0.0000000000000000e+00  0.0000000000000000e+00  0.0000000000000000e+00  0.0000000000000000e+00  0.0000000000000000e+00  0.0000000000000000e+00  0.0000000000000000e+00  0.0000000000000000e+00  0.0000000000000000e+00  0.0000000000000000e+00  0.0000000000000000e+00  0.0000000000000000e+00  0.0000000000000000e+00  0.0000000000000000e+00  0.0000000000000000e+00  0.0000000000000000e+00  0.0000000000000000e+00  0.0000000000000000e+00  0.0000000000000000e+00  0.0000000000000000e+00  0.0000000000000000e+00  0.0000000000000000e+00  0.0000000000000000e+00  0.0000000000000000e+00  0.0000000000000000e+00  0.0000000000000000e+00  0.0000000000000000e+00  0.0000000000000000e+00  0.0000000000000000e+00  0.0000000000000000e+00  0.0000000000000000e+00  0.0000000000000000e+00  0.0000000000000000e+00  0.0000000000000000e+00  0.0000000000000000e+00  0.0000000000000000e+00  0.0000000000000000e+00  0.0000000000000000e+00  0.0000000000000000e+00  0.0000000000000000e+00  0.0000000000000000e+00  0.0000000000000000e+00  0.0000000000000000e+00  0.0000000000000000e+00  0.0000000000000000e+00  0.0000000000000000e+00  0.0000000000000000e+00  0.0000000000000000e+00  0.0000000000000000e+00  0.0000000000000000e+00  0.0000000000000000e+00  0.0000000000000000e+00  0.0000000000000000e+00  0.0000000000000000e+00  0.0000000000000000e+00  0.0000000000000000e+00  0.0000000000000000e+00  0.0000000000000000e+00  0.0000000000000000e+00  0.0000000000000000e+00  0.0000000000000000e+00  0.0000000000000000e+00  0.0000000000000000e+00  0.0000000000000000e+00  0.0000000000000000e+00  0.0000000000000000e+00  0.0000000000000000e+00  0.0000000000000000e+00  0.0000000000000000e+00  0.0000000000000000e+00  0.0000000000000000e+00  0.0000000000000000e+00  0.0000000000000000e+00  0.0000000000000000e+00  0.0000000000000000e+00  0.0000000000000000e+00  0.0000000000000000e+00  0.0000000000000000e+00  0.0000000000000000e+00  0.0000000000000000e+00  0.0000000000000000e+00  0.0000000000000000e+00  0.0000000000000000e+00  0.0000000000000000e+00  0.0000000000000000e+00  0.0000000000000000e+00  0.0000000000000000e+00  0.0000000000000000e+00  0.0000000000000000e+00  0.0000000000000000e+00  0.0000000000000000e+00  0.0000000000000000e+00  0.0000000000000000e+00  0.0000000000000000e+00  0.0000000000000000e+00  0.0000000000000000e+00  0.0000000000000000e+00  0.0000000000000000e+00  0.0000000000000000e+00  0.0000000000000000e+00  0.0000000000000000e+00  0.0000000000000000e+00  0.0000000000000000e+00  0.0000000000000000e+00  0.0000000000000000e+00  0.0000000000000000e+00  0.0000000000000000e+00  0.0000000000000000e+00  0.0000000000000000e+00  0.0000000000000000e+00  0.0000000000000000e+00  0.0000000000000000e+00  0.0000000000000000e+00  0.0000000000000000e+00  0.0000000000000000e+00  0.0000000000000000e+00  0.0000000000000000e+00  0.0000000000000000e+00  0.0000000000000000e+00  0.0000000000000000e+00  0.0000000000000000e+00  0.0000000000000000e+00  0.0000000000000000e+00  0.0000000000000000e+00  0.0000000000000000e+00  0.0000000000000000e+00  0.0000000000000000e+00  0.0000000000000000e+00  0.0000000000000000e+00  0.0000000000000000e+00  0.0000000000000000e+00  0.0000000000000000e+00  0.0000000000000000e+00  0.0000000000000000e+00  0.0000000000000000e+00  0.0000000000000000e+00  0.0000000000000000e+00  0.0000000000000000e+00  0.0000000000000000e+00  0.0000000000000000e+00  0.0000000000000000e+00  0.0000000000000000e+00  0.0000000000000000e+00  0.0000000000000000e+00  0.0000000000000000e+00  0.0000000000000000e+00  0.0000000000000000e+00  0.0000000000000000e+00  0.0000000000000000e+00  0.0000000000000000e+00  0.0000000000000000e+00  0.0000000000000000e+00  0.0000000000000000e+00  0.0000000000000000e+00  0.0000000000000000e+00  0.0000000000000000e+00  0.0000000000000000e+00  0.0000000000000000e+00  0.0000000000000000e+00  0.0000000000000000e+00  0.0000000000000000e+00  0.0000000000000000e+00  0.0000000000000000e+00  0.0000000000000000e+00  0.0000000000000000e+00  0.0000000000000000e+00  0.0000000000000000e+00  0.0000000000000000e+00  0.0000000000000000e+00  0.0000000000000000e+00  0.0000000000000000e+00  0.0000000000000000e+00  0.0000000000000000e+00  0.0000000000000000e+00  0.0000000000000000e+00  0.0000000000000000e+00  </DataArray> 
</PointData> 
</Piece>
</UnstructuredGrid>
</VTKFile>