<?xml version="1.0"?>
<VTKFile type="UnstructuredGrid"  version="0.1"  >
<UnstructuredGrid>
<Piece  NumberOfPoints="391" NumberOfCells="649">
<Points>
<DataArray  type="Float64"  NumberOfComponents="3"  format="ascii">0 0 0  0.000584 0.00426 0  0.002334 0.008429000000000001 0  0.005247 0.012501 0  0.009315 0.016471 0  0.014529 0.02033 0  0.020877 0.024071 0  0.028344 0.027683 0  0.036913 0.031156 0  0.046563 0.034479 0  0.057272 0.037641 0  0.06901500000000001 0.040631 0  0.081765 0.043437 0  0.09549199999999999 0.046049 0  0.110163 0.048457 0  0.125745 0.050651 0  0.142201 0.052625 0  0.159492 0.054372 0  0.177579 0.055886 0  0.196419 0.057164 0  0.215968 0.058205 0  0.23618 0.059008 0  0.257008 0.059576 0  0.278404 0.05991 0  0.300318 0.060017 0  0.322698 0.059903 0  0.345492 0.059575 0  0.368646 0.059042 0  0.392108 0.058314 0  0.415822 0.057403 0  0.439732 0.05632 0  0.463783 0.055077 0  0.487918 0.053687 0  0.512082 0.052162 0  0.5362170000000001 0.050516 0  0.560268 0.048762 0  0.584179 0.046912 0  0.607892 0.04498 0  0.631354 0.042978 0  0.654509 0.040917 0  0.677303 0.038811 0  0.699682 0.03667 0  0.721596 0.034506 0  0.742992 0.032329 0  0.7638200000000001 0.030152 0  0.784032 0.027983 0  0.803581 0.025834 0  0.822421 0.023714 0  0.840508 0.021635 0  0.8578 0.019605 0  0.874255 0.017635 0  0.889837 0.015735 0  0.904509 0.013914 0  0.918235 0.012182 0  0.930985 0.010549 0  0.942728 0.009022000000000001 0  0.953437 0.007611 0  0.963087 0.006324 0  0.971656 0.005169 0  0.979123 0.004152 0  0.985471 0.00328 0  0.990685 0.00256 0  0.994753 0.001994 0  0.9976660000000001 0.001587 0  0.999416 0.001342 0  1 0.00126 0  1 -0.00126 0  0.999416 -0.001342 0  0.9976660000000001 -0.001587 0  0.994753 -0.001994 0  0.990685 -0.00256 0  0.985471 -0.00328 0  0.979123 -0.004152 0  0.971656 -0.005169 0  0.963087 -0.006324 0  0.953437 -0.007611 0  0.942728 -0.009022000000000001 0  0.930985 -0.010549 0  0.918235 -0.012182 0  0.904509 -0.013914 0  0.889837 -0.015735 0  0.874255 -0.017635 0  0.8578 -0.019605 0  0.840508 -0.021635 0  0.822421 -0.023714 0  0.803581 -0.025834 0  0.784032 -0.027983 0  0.7638200000000001 -0.030152 0  0.742992 -0.032329 0  0.721596 -0.034506 0  0.699682 -0.03667 0  0.677303 -0.038811 0  0.654509 -0.040917 0  0.631354 -0.042978 0  0.607892 -0.04498 0  0.584179 -0.046912 0  0.560268 -0.048762 0  0.5362170000000001 -0.050516 0  0.512082 -0.052162 0  0.487918 -0.053687 0  0.463783 -0.055077 0  0.439732 -0.05632 0  0.415822 -0.057403 0  0.392108 -0.058314 0  0.368646 -0.059042 0  0.345492 -0.059575 0  0.322698 -0.059903 0  0.300318 -0.060017 0  0.278404 -0.05991 0  0.257008 -0.059576 0  0.23618 -0.059008 0  0.215968 -0.058205 0  0.196419 -0.057164 0  0.177579 -0.055886 0  0.159492 -0.054372 0  0.142201 -0.052625 0  0.125745 -0.050651 0  0.110163 -0.048457 0  0.09549199999999999 -0.046049 0  0.081765 -0.043437 0  0.06901500000000001 -0.040631 0  0.057272 -0.037641 0  0.046563 -0.034479 0  0.036913 -0.031156 0  0.028344 -0.027683 0  0.020877 -0.024071 0  0.014529 -0.02033 0  0.009315 -0.016471 0  0.005247 -0.012501 0  0.002334 -0.008429000000000001 0  0.000584 -0.00426 0  0.01051423135523855 -0.01117295588082861 0  0.02756390097476067 0.01977150579220987 0  0.0526434308429156 -0.02829972804795622 0  0.07773282019841611 0.03138861242701169 0  0.1047795828511429 -0.03563979979750351 0  0.1356393021439652 0.0377470840521317 0  0.16978943964635 -0.04066497977854743 0  0.02759271675875811 -0.01879335103264053 0  0.2067858430212495 0.04163270358146878 0  0.01136769359005856 0.01083256973459596 0  0.2470787277960106 -0.04151750962093694 0  0.291328069394456 0.04353359869243999 0  0.3357084107019612 -0.04066930514411139 0  0.2056964655816405 -0.04123324996270205 0  0.1698188060668919 0.03979798491950258 0  0.137139767621707 -0.03708273494618445 0  0.1067427176535045 0.03534552994830778 0  0.07661267404209622 -0.03091426507130846 0  0.3797507390416105 -0.03849484806904379 0  0.05448069622194083 0.02729839593367723 0  0.2469476940298208 0.04076257224349413 0  0.428039734391821 0.04045772034672695 0  0.2916321385622036 -0.04312918994214396 0  0.4745709008860401 -0.03351363983412878 0  0.3566110335483937 0.03941402491465178 0  0.5264391723616076 0.03166923849190294 0  0.003981268220121709 0.001624241164189887 0  0.5691659231757754 0.02657382099221397 0  0.4270021742894738 -0.03739919303891311 0  0.6178571756409788 0.02382520168494394 0  0.4749354718932 0.03247633284198923 0  0.6636163783704538 -0.01937026598486317 0  0.5468045881775089 -0.02888205291960842 0  0.7090675792628579 -0.01761858210756372 0  0.5965511304950204 -0.02454869259818997 0  0.7518155770504935 -0.01461845971258514 0  0.792069030111591 -0.01082808016168851 0  0.6867763170481742 0.01878376277611957 0  0.9983548042620488 -0.0004407064138770302 0  0.7305701087283066 0.01589026965904009 0  0.005247733447653259 -0.004849409152193521 0  0.8297033604250699 0.007352839830798719 0  0.772139324496494 0.01230479215587231 0  0.8647871425157977 0.005153306612194894 0  0.9966416672158749 4.953466992582773e-05 0  0.893668432346142 0.004667421272219176 0  0.8475573891609707 -0.005835882624165163 0  0.8806637999156889 -0.004518153353487709 0  0.9239928955662995 0.0002741195319668915 0  0.9084917589881416 -0.0003989400394065196 0  0.9364009378967767 4.568658866114915e-05 0  0.7922464627725909 0.01196932688037422 0  0.8118507012672831 -0.008307682224929966 0  0.04447503017904356 0.02444889879614376 0  0.05151209177433315 0.01690742171654351 0  0.06192120582594478 0.01953794364015137 0  0.05879062478057767 0.008856802525083951 0  0.04821435011662426 0.00655741922633831 0  0.06971139892795505 0.01147886084056417 0  0.06639133195720821 0.0003768028783505139 0  0.07817782673741308 0.003191144923932913 0  0.07444373007965326 -0.008519318373660724 0  0.0867115708308854 -0.006037502638517728 0  0.09055545943613189 0.006472180974483184 0  0.09938835357460804 -0.003185325876794238 0  0.1034373440815737 0.009683953466218359 0  0.1131388064062449 -0.0003667871959392105 0  0.1173683869343734 0.01339294468630257 0  0.1276249769618608 0.002710261245899574 0  0.1221597246493524 -0.01078823987131062 0  0.1381762347862787 -0.008416933768311138 0  0.1428872850162845 0.007397816584540901 0  0.1540698796844648 -0.005161483884975439 0  0.1589812490720239 0.01056442676432685 0  0.170729770173554 -0.001783251537208892 0  0.1754285416956543 0.01424432005851864 0  0.187312641596781 0.00115506048868472 0  0.1828272649421894 -0.01408916241199395 0  0.200242803556251 -0.01073047026929805 0  0.204753801503594 0.008116990141088297 0  0.2186704929282322 -0.007049353767778732 0  0.2246147051466125 0.01066979157859623 0  0.2381711765962146 -0.004139540373957372 0  0.06270013351851932 -0.01031549175141694 0  0.09482269162446443 -0.01321479634435267 0  0.0934636085964666 0.01911539176593725 0  0.1487921018040673 -0.02287238567694072 0  0.2435763303152902 0.01628531923923034 0  0.257900157744173 8.860922437471316e-06 0  0.2638357736636445 0.02002630749309453 0  0.2778470416517989 0.00451702036003339 0  0.2715850351382657 -0.0151579435177884 0  0.2921808543354524 -0.009958494585882896 0  0.2988611516841339 0.009408553176366519 0  0.3134767460414706 -0.005917629994076049 0  0.3204707879290896 0.01459692129225799 0  0.3351531896050863 -0.001362183655328697 0  0.2318808523201146 -0.02247447406387812 0  0.1473134767786693 0.023262327946355 0  0.06992232434302721 -0.01939394337827437 0  0.3430967099107958 0.02240029036602662 0  0.3571067384307582 0.002964089551645257 0  0.3474868087379184 -0.01896271031138723 0  0.3724137419462261 -0.01634013519330195 0  0.3796946536812144 0.007042877939543914 0  0.3962897515221041 -0.008074637263495174 0  0.4022568358381073 0.01309967293053544 0  0.4180607209636055 -0.004189266928997419 0  0.3864766079995313 0.0303083738310224 0  0.3242522403777179 0.03633037925381202 0  0.05534333761889741 -0.001737216688620391 0  0.04474291141724673 -0.003183803841920831 0  0.03836627667943078 0.004574178720249835 0  0.03488648035152855 -0.004005261170172501 0  0.02936501615825044 0.002734006721279401 0  0.02622380782656829 -0.00489210072069872 0  0.02136316949123504 0.00103638227323071 0  0.04039313673620833 -0.01139632822855207 0  0.02360894704514579 0.008146090430574926 0  0.01922928466598127 -0.006060832539645612 0  0.01431225370903815 -0.001213220917278762 0  0.01645514231976496 0.00611305563495889 0  0.01823506434787182 0.01213855128914441 0  0.02336227511588511 -0.01173009931618105 0  0.04177098809362692 0.01435269136777678 0  0.03159315696780568 0.01235967077106757 0  0.0511031247488301 -0.01106813598644859 0  0.04517914071271759 -0.01954247718387037 0  0.009425740004410942 0.004342791091221355 0  0.03129753845492454 -0.01117181303370232 0  0.3035202475667491 -0.02503571181792319 0  0.7724737231125833 -0.013121586479099 0  0.2695248383720587 0.04106736850953776 0  0.7516250367889521 0.01398454630869196 0  0.7307114657446151 -0.01655297405767773 0  0.6410938814065019 0.02194329456478554 0  0.6278572940395335 0.002824362617062958 0  0.6031738717152038 0.002994364512970088 0  0.6514421719131063 0.00123315666117696 0  0.6374922099140278 -0.02108081777885591 0  0.2310090625253829 0.02817325185930499 0  0.7089853497724775 0.01760005923544864 0  0.6867385318011837 -0.01877430184368374 0  0.674856839194351 0.0003959601640880928 0  0.6643302015936888 0.02034736236102836 0  0.1880772930008062 0.04128431787621061 0  0.1977753651348986 0.02544963548568176 0  0.1525885906743467 -0.03939972199889578 0  0.1212108232189733 0.03659437659357964 0  0.1207955055817194 -0.03627601474536306 0  0.1871511657692572 -0.04165286408456747 0  0.2260726071787525 -0.04151188614347363 0  0.26893868400649 -0.03806671316359686 0  0.08993180946929703 -0.03335764423659838 0  0.1528740103454359 0.03893106305894792 0  0.1311329356090203 0.02209718664312646 0  0.5710311193201132 -0.02711365486907535 0  0.5574756900612801 -0.008355350448153494 0  0.5334962034851186 -0.009425002419474096 0  0.5460516248518335 0.012915957
[...]
<PointData  Scalars="f_5"> 
<DataArray  type="Float64"  Name="f_5"  format="ascii">0.0000000000000000e+00  0.0000000000000000e+00  0.0000000000000000e+00  0.0000000000000000e+00  0.0000000000000000e+00  0.0000000000000000e+00  0.0000000000000000e+00  0.0000000000000000e+00  0.0000000000000000e+00  0.0000000000000000e+00  0.0000000000000000e+00  0.0000000000000000e+00  0.0000000000000000e+00  0.0000000000000000e+00  0.0000000000000000e+00  0.0000000000000000e+00  0.0000000000000000e+00  0.0000000000000000e+00  0.0000000000000000e+00  0.0000000000000000e+00  0.0000000000000000e+00  0.0000000000000000e+00  0.0000000000000000e+00  0.0000000000000000e+00  0.0000000000000000e+00  0.0000000000000000e+00  0.0000000000000000e+00  0.0000000000000000e+00  0.0000000000000000e+00  0.0000000000000000e+00  0.0000000000000000e+00  0.0000000000000000e+00  0.0000000000000000e+00  0.0000000000000000e+00  0.0000000000000000e+00  0.0000000000000000e+00  0.0000000000000000e+00  0.0000000000000000e+00  0.0000000000000000e+00  0.0000000000000000e+00  0.0000000000000000e+00  0.0000000000000000e+00  0.0000000000000000e+00  0.0000000000000000e+00  0.0000000000000000e+00  0.0000000000000000e+00  0.0000000000000000e+00  0.0000000000000000e+00  0.0000000000000000e+00  0.0000000000000000e+00  0.0000000000000000e+00  0.0000000000000000e+00  0.0000000000000000e+00  0.0000000000000000e+00  0.0000000000000000e+00  0.0000000000000000e+00  0.0000000000000000e+00  0.0000000000000000e+00  0.0000000000000000e+00  0.0000000000000000e+00  0.0000000000000000e+00  0.0000000000000000e+00  0.0000000000000000e+00  0.0000000000000000e+00  0.0000000000000000e+00  0.0000000000000000e+00  0.0000000000000000e+00  0.0000000000000000e+00  0.0000000000000000e+00  0.0000000000000000e+00  0.0000000000000000e+00  0.0000000000000000e+00  0.0000000000000000e+00  0.0000000000000000e+00  0.0000000000000000e+00  0.0000000000000000e+00  0.0000000000000000e+00  0.0000000000000000e+00  0.0000000000000000e+00  0.0000000000000000e+00  0.0000000000000000e+00  0.0000000000000000e+00  0.0000000000000000e+00  0.0000000000000000e+00  0.0000000000000000e+00  0.0000000000000000e+00  0.0000000000000000e+00  0.0000000000000000e+00  0.0000000000000000e+00  0.0000000000000000e+00  0.0000000000000000e+00  0.0000000000000000e+00  0.0000000000000000e+00  0.0000000000000000e+00  0.0000000000000000e+00  0.0000000000000000e+00  0.0000000000000000e+00  0.0000000000000000e+00  0.0000000000000000e+00  0.0000000000000000e+00  0.0000000000000000e+00  0.0000000000000000e+00  0.0000000000000000e+00  0.0000000000000000e+00  0.0000000000000000e+00  0.0000000000000000e+00  0.0000000000000000e+00  0.0000000000000000e+00  0.0000000000000000e+00  0.0000000000000000e+00  0.0000000000000000e+00  0.0000000000000000e+00  0.0000000000000000e+00  0.0000000000000000e+00  0.0000000000000000e+00  0.0000000000000000e+00  0.0000000000000000e+00  0.0000000000000000e+00  0.0000000000000000e+00  0.0000000000000000e+00  0.0000000000000000e+00  0.0000000000000000e+00  0.0000000000000000e+00  0.0000000000000000e+00  0.0000000000000000e+00  0.0000000000000000e+00  0.0000000000000000e+00  0.0000000000000000e+00  0.0000000000000000e+00  0.0000000000000000e+00  0.0000000000000000e+00  0.0000000000000000e+00  0.0000000000000000e+00  0.0000000000000000e+00  0.0000000000000000e+00  0.0000000000000000e+00  0.0000000000000000e+00  0.0000000000000000e+00  0.0000000000000000e+00  0.0000000000000000e+00  0.0000000000000000e+00  0.0000000000000000e+00  0.0000000000000000e+00  0.0000000000000000e+00  0.0000000000000000e+00  0.0000000000000000e+00  0.0000000000000000e+00  0.0000000000000000e+00  0.0000000000000000e+00  0.0000000000000000e+00  0.0000000000000000e+00  0.0000000000000000e+00  0.0000000000000000e+00  0.0000000000000000e+00  0.0000000000000000e+00  0.0000000000000000e+00  0.0000000000000000e+00  0.0000000000000000e+00  0.0000000000000000e+00  0.0000000000000000e+00  0.0000000000000000e+00  0.0000000000000000e+00  0.0000000000000000e+00  0.0000000000000000e+00  0.0000000000000000e+00  0.0000000000000000e+00  0.0000000000000000e+00  0.0000000000000000e+00  0.0000000000000000e+00  0.0000000000000000e+00  0.0000000000000000e+00  0.0000000000000000e+00  0.0000000000000000e+00  0.0000000000000000e+00  0.0000000000000000e+00  0.0000000000000000e+00  0.0000000000000000e+00  0.0000000000000000e+00  0.0000000000000000e+00  0.0000000000000000e+00  0.0000000000000000e+00  0.0000000000000000e+00  0.0000000000000000e+00  0.0000000000000000e+00  0.0000000000000000e+00  0.0000000000000000e+00  0.0000000000000000e+00  0.0000000000000000e+00  0.0000000000000000e+00  0.0000000000000000e+00  0.0000000000000000e+00  0.0000000000000000e+00  0.0000000000000000e+00  0.0000000000000000e+00  0.0000000000000000e+00  0.0000000000000000e+00  0.0000000000000000e+00  0.0000000000000000e+00  0.0000000000000000e+00  0.0000000000000000e+00  0.0000000000000000e+00  0.0000000000000000e+00  0.0000000000000000e+00  0.0000000000000000e+00  0.0000000000000000e+00  0.0000000000000000e+00  0.0000000000000000e+00  0.0000000000000000e+00  0.0000000000000000e+00  0.0000000000000000e+00  0.0000000000000000e+00  0.0000000000000000e+00  0.0000000000000000e+00  0.0000000000000000e+00  0.0000000000000000e+00  0.0000000000000000e+00  0.0000000000000000e+00  0.0000000000000000e+00  0.0000000000000000e+00  0.0000000000000000e+00  0.0000000000000000e+00  0.0000000000000000e+00  0.0000000000000000e+00  0.0000000000000000e+00  0.0000000000000000e+00  0.0000000000000000e+00  0.0000000000000000e+00  0.0000000000000000e+00  0.0000000000000000e+00  0.0000000000000000e+00  0.0000000000000000e+00  0.0000000000000000e+00  0.0000000000000000e+00  0.0000000000000000e+00  0.0000000000000000e+00  0.0000000000000000e+00  0.0000000000000000e+00  0.0000000000000000e+00  0.0000000000000000e+00  0.0000000000000000e+00  0.0000000000000000e+00  0.0000000000000000e+00  0.0000000000000000e+00  0.0000000000000000e+00  0.0000000000000000e+00  0.0000000000000000e+00  0.0000000000000000e+00  0.0000000000000000e+00  0.0000000000000000e+00  0.0000000000000000e+00  0.0000000000000000e+00  0.0000000000000000e+00  0.0000000000000000e+00  0.0000000000000000e+00  0.0000000000000000e+00  0.0000000000000000e+00  0.0000000000000000e+00  0.0000000000000000e+00  0.0000000000000000e+00  0.0000000000000000e+00  0.0000000000000000e+00  0.0000000000000000e+00  0.0000000000000000e+00  0.0000000000000000e+00  0.0000000000000000e+00  0.0000000000000000e+00  0.0000000000000000e+00  0.0000000000000000e+00  0.0000000000000000e+00  0.0000000000000000e+00  0.0000000000000000e+00  0.0000000000000000e+00  0.0000000000000000e+00  0.0000000000000000e+00  0.0000000000000000e+00  0.0000000000000000e+00  0.0000000000000000e+00  0.0000000000000000e+00  0.0000000000000000e+00  0.0000000000000000e+00  0.0000000000000000e+00  0.0000000000000000e+00  0.0000000000000000e+00  0.0000000000000000e+00  0.0000000000000000e+00  0.0000000000000000e+00  0.0000000000000000e+00  0.0000000000000000e+00  0.0000000000000000e+00  0.0000000000000000e+00  0.0000000000000000e+00  0.0000000000000000e+00  0.0000000000000000e+00  0.0000000000000000e+00  0.0000000000000000e+00  0.0000000000000000e+00  0.0000000000000000e+00  0.0000000000000000e+00  0.0000000000000000e+00  0.0000000000000000e+00  0.0000000000000000e+00  0.0000000000000000e+00  0.0000000000000000e+00  0.0000000000000000e+00  0.0000000000000000e+00  0.0000000000000000e+00  0.0000000000000000e+00  0.0000000000000000e+00  0.0000000000000000e+00  0.0000000000000000e+00  0.0000000000000000e+00  0.0000000000000000e+00  0.0000000000000000e+00  0.0000000000000000e+00  0.0000000000000000e+00  0.0000000000000000e+00  0.0000000000000000e+00  0.0000000000000000e+00  0.0000000000000000e+00  0.0000000000000000e+00  0.0000000000000000e+00  0.0000000000000000e+00  0.0000000000000000e+00  0.0000000000000000e+00  0.0000000000000000e+00  0.0000000000000000e+00  0.0000000000000000e+00  0.0000000000000000e+00  0.0000000000000000e+00  0.0000000000000000e+00  0.0000000000000000e+00  0.0000000000000000e+00  0.0000000000000000e+00  0.0000000000000000e+00  0.0000000000000000e+00  0.0000000000000000e+00  0.0000000000000000e+00  0.0000000000000000e+00  0.0000000000000000e+00  0.0000000000000000e+00  0.0000000000000000e+00  0.0000000000000000e+00  0.0000000000000000e+00  0.0000000000000000e+00  0.0000000000000000e+00  0.0000000000000000e+00  0.0000000000000000e+00  0.0000000000000000e+00  0.0000000000000000e+00  0.0000000000000000e+00  0.0000000000000000e+00  0.0000000000000000e+00  0.0000000000000000e+00  0.0000000000000000e+00  0.0000000000000000e+00  0.0000000000000000e+00  0.0000000000000000e+00  0.0000000000000000e+00  0.0000000000000000e+00  0.0000000000000000e+00  0.0000000000000000e+00  0.0000000000000000e+00  0.0000000000000000e+00  0.0000000000000000e+00  0.0000000000000000e+00  0.0000000000000000e+00  0.0000000000000000e+00  0.0000000000000000e+00  0.0000000000000000e+00  0.0000000000000000e+00  0.0000000000000000e+00  0.0000000000000000e+00  0.0000000000000000e+00  0.0000000000000000e+00  0.0000000000000000e+00  0.0000000000000000e+00  0.0000000000000000e+00  0.0000000000000000e+00  0.0000000000000000e+00  0.0000000000000000e+00  0.0000000000000000e+00  0.0000000000000000e+00  0.0000000000000000e+00  0.0000000000000000e+00  0.0000000000000000e+00  0.0000000000000000e+00  0.0000000000000000e+00  0.0000000000000000e+00  0.0000000000000000e+00  0.0000000000000000e+00  0.0000000000000000e+00  </DataArray> 
</PointData> 
</Piece>
</UnstructuredGrid>
</VTKFile>