# y+ ()       
# Time        	patch         	min           	max           	average       
500           	bladenlf26_bladenlf26	2.663138e+00	5.122519e+01	1.725970e+01
500           	bladenlf26_bladenlf26FLAP	5.636755e+00	2.607299e+01	1.624558e+01
