# Force coefficients
# dragDir     : (9.945246e-01 1.045026e-01 0.000000e+00)
# sideDir     : (0.000000e+00 0.000000e+00 -1.000000e+00)
# liftDir     : (-1.045026e-01 9.945246e-01 0.000000e+00)
# rollAxis    : (9.945246e-01 1.045026e-01 0.000000e+00)
# pitchAxis   : (0.000000e+00 0.000000e+00 -1.000000e+00)
# yawAxis     : (-1.045026e-01 9.945246e-01 0.000000e+00)
# magUInf     : 4.186900e+01
# lRef        : 9.400000e-01
# Aref        : 1.000000e-01
# CofR        : (2.500000e-01 0.000000e+00 0.000000e+00)
#
# Time        	Cd            	Cs            	Cl            	CmRoll        	CmPitch       	CmYaw         	Cd(f)         	Cd(r)         	Cs(f)         	Cs(r)         	Cl(f)         	Cl(r)         
1             	3.673288e+01	-1.242828e-06	7.927922e+01	-8.433172e+01	-4.586672e+01	3.907549e+01	-6.596528e+01	1.026982e+02	3.907549e+01	-3.907549e+01	-6.227107e+00	8.550632e+01
2             	1.458426e+01	3.431527e-05	4.180843e+01	-4.448515e+01	-2.075908e+01	1.551044e+01	-3.719302e+01	5.177728e+01	1.551046e+01	-1.551042e+01	1.451329e-01	4.166330e+01
3             	7.277150e+00	6.081495e-05	2.817763e+01	-3.000062e+01	-1.213731e+01	7.745168e+00	-2.636204e+01	3.363919e+01	7.745198e+00	-7.745137e+00	1.951502e+00	2.622613e+01
4             	4.442724e+00	3.105101e-05	2.310929e+01	-2.459946e+01	-9.695950e+00	4.728304e+00	-2.237809e+01	2.682082e+01	4.728319e+00	-4.728288e+00	1.858693e+00	2.125059e+01
