# p  FACE_DATA 81
# x  y  z  p
0.906521 -0.0319005 0.05 657.421
0.902175 -0.0313565 0.05 662.423
0.898429 -0.0308605 0.05 649.16
0.895349 -0.0302715 0.05 673.727
0.89303 -0.0293475 0.05 781.329
0.891549 -0.02792 0.05 885.257
0.890856 -0.0261565 0.05 828.008
0.890856 -0.0243155 0.05 607.778
1.20199 -0.102543 0.05 -242.331
1.20123 -0.102812 0.05 264.928
1.19893 -0.101784 0.05 240.719
1.19438 -0.0997355 0.05 314.425
1.18766 -0.0966525 0.05 360.948
1.17885 -0.0926975 0.05 407.261
1.16798 -0.0881585 0.05 431.359
1.15521 -0.083221 0.05 455.679
1.1407 -0.077996 0.05 479.831
1.12465 -0.0726965 0.05 498.085
1.10727 -0.0675095 0.05 510.872
1.0936 -0.063742 0.05 519.166
1.08414 -0.0613465 0.05 524.007
1.0745 -0.059039 0.05 528.573
1.06472 -0.0568265 0.05 532.524
1.05485 -0.0547175 0.05 535.62
1.04491 -0.0527125 0.05 538.701
1.03495 -0.050808 0.05 542.077
1.02503 -0.049004 0.05 545.318
1.01517 -0.047303 0.05 547.843
1.00542 -0.045697 0.05 551.779
0.995825 -0.0441855 0.05 554.712
0.986424 -0.0427645 0.05 558.852
0.97726 -0.0414245 0.05 562.875
0.968372 -0.040158 0.05 568.855
0.959797 -0.038968 0.05 573.17
0.951573 -0.037853 0.05 579.747
0.943736 -0.036799 0.05 587.671
0.93632 -0.0358135 0.05 595.381
0.929354 -0.0348955 0.05 604.082
0.922865 -0.0340395 0.05 614.167
0.916881 -0.033245 0.05 627.271
0.911428 -0.0325265 0.05 642.282
0.891565 -0.0223655 0.05 313.931
0.892962 -0.020368 0.05 91.5907
0.894982 -0.0184905 0.05 -64.621
0.897595 -0.0168075 0.05 -150.008
0.900779 -0.015354 0.05 -158.558
0.904528 -0.0141055 0.05 -143.193
0.908834 -0.0130605 0.05 -142.496
0.913683 -0.0122235 0.05 -141.635
0.91906 -0.0115575 0.05 -146.425
0.924968 -0.011026 0.05 -178.574
0.931389 -0.0106225 0.05 -241.313
0.938282 -0.010365 0.05 -334.953
0.945602 -0.01031 0.05 -448.658
0.953305 -0.0105065 0.05 -544.508
0.961356 -0.0109735 0.05 -615.789
0.969719 -0.011708 0.05 -652.105
0.978362 -0.0127095 0.05 -685.579
0.987247 -0.013985 0.05 -707.914
0.996331 -0.015546 0.05 -721.291
1.00558 -0.01739 0.05 -715.577
1.01495 -0.0194985 0.05 -702.112
1.02443 -0.021847 0.05 -679.403
1.03398 -0.024403 0.05 -662.258
1.04357 -0.027151 0.05 -643.557
1.05314 -0.0300845 0.05 -629.56
1.06268 -0.0331985 0.05 -604.556
1.07213 -0.0364775 0.05 -570.48
1.08146 -0.039912 0.05 -540.726
1.09064 -0.043483 0.05 -503.282
1.09964 -0.0471515 0.05 -463.581
1.11263 -0.0527845 0.05 -411.169
1.12914 -0.060358 0.05 -350.392
1.1444 -0.067842 0.05 -265.155
1.15817 -0.0750645 0.05 -204.279
1.17028 -0.0818585 0.05 -142.071
1.18055 -0.088023 0.05 -75.6809
1.18886 -0.0933635 0.05 -19.0935
1.19519 -0.097522 0.05 31.8416
1.19948 -0.100262 0.05 50.0507
1.20165 -0.101642 0.05 55.7352
